[Molden Format]
made by pyscf v[1.7.6]
[Atoms] (AU)
C   1   6    -4.14275198319419     0.10154431991994     0.00000000000000
H   2   1    -4.84049023113968     1.09195698166102    -1.66801451722652
H   3   1    -4.96127120711723    -1.78310384598676     0.00000000000000
C   4   6    -1.33659349912354    -0.09235817225581     0.00000000000000
N   5   7     0.22894740646402     1.98599185360399     0.00000000000000
C   6   6     2.65622825585454     1.12854262745318     0.00000000000000
H   7   1     4.25487221206204     2.38828385637163     0.00000000000000
N   8   7     2.75103717612678    -1.33312668316446     0.00000000000000
C   9   6     0.26580817748266    -2.10954369720347     0.00000000000000
H   10   1    -0.23189239345107    -4.08253661612537     0.00000000000000
H   11   1    -0.31964532203858     3.80147084660476     0.00000000000000
H   12   1    -4.84049023113968     1.09195698166102     1.66801451722652
[GTO]
1 0
 s    6 1.00
             3047.5249  0.0018347001629433
             457.36951    0.01403730124668
             103.94869   0.068842606114048
             29.210155    0.23218442062076
              9.286663    0.46794134155879
              3.163927    0.36231203217765
 s    3 1.00
             7.8682724   -0.11933240861517
             1.8812885   -0.16085421161283
             0.5442493     1.1434564825515
 s    1 1.00
             0.1687144                   1
 s    1 1.00
                0.0438                   1
 p    3 1.00
             7.8682724   0.068999095584993
             1.8812885    0.31642397975315
             0.5442493    0.74430825237435
 p    1 1.00
             0.1687144                   1
 p    1 1.00
                0.0438                   1
 d    1 1.00
                   0.8                   1

2 0
 s    3 1.00
             18.731137    0.03349459952309
             2.8253937    0.23472694665786
             0.6401217    0.81375731841339
 s    1 1.00
             0.1612778                   1

3 0
 s    3 1.00
             18.731137    0.03349459952309
             2.8253937    0.23472694665786
             0.6401217    0.81375731841339
 s    1 1.00
             0.1612778                   1

4 0
 s    6 1.00
             3047.5249  0.0018347001629433
             457.36951    0.01403730124668
             103.94869   0.068842606114048
             29.210155    0.23218442062076
              9.286663    0.46794134155879
              3.163927    0.36231203217765
 s    3 1.00
             7.8682724   -0.11933240861517
             1.8812885   -0.16085421161283
             0.5442493     1.1434564825515
 s    1 1.00
             0.1687144                   1
 s    1 1.00
                0.0438                   1
 p    3 1.00
             7.8682724   0.068999095584993
             1.8812885    0.31642397975315
             0.5442493    0.74430825237435
 p    1 1.00
             0.1687144                   1
 p    1 1.00
                0.0438                   1
 d    1 1.00
                   0.8                   1

5 0
 s    6 1.00
              4173.511  0.0018347994430301
              627.4579   0.013994995751693
              142.9021   0.068586979179805
              40.23433    0.23224092950117
              12.82021    0.46906985760962
              4.390437    0.36045489058067
 s    3 1.00
             11.626358   -0.11496102288211
               2.71628   -0.16911803366165
              0.772218     1.1458522280731
 s    1 1.00
             0.2120313                   1
 s    1 1.00
                0.0639                   1
 p    3 1.00
             11.626358   0.067580023248036
               2.71628    0.32390711142648
              0.772218    0.74089525487354
 p    1 1.00
             0.2120313                   1
 p    1 1.00
                0.0639                   1
 d    1 1.00
                   0.8                   1

6 0
 s    6 1.00
             3047.5249  0.0018347001629433
             457.36951    0.01403730124668
             103.94869   0.068842606114048
             29.210155    0.23218442062076
              9.286663    0.46794134155879
              3.163927    0.36231203217765
 s    3 1.00
             7.8682724   -0.11933240861517
             1.8812885   -0.16085421161283
             0.5442493     1.1434564825515
 s    1 1.00
             0.1687144                   1
 s    1 1.00
                0.0438                   1
 p    3 1.00
             7.8682724   0.068999095584993
             1.8812885    0.31642397975315
             0.5442493    0.74430825237435
 p    1 1.00
             0.1687144                   1
 p    1 1.00
                0.0438                   1
 d    1 1.00
                   0.8                   1

7 0
 s    3 1.00
             18.731137    0.03349459952309
             2.8253937    0.23472694665786
             0.6401217    0.81375731841339
 s    1 1.00
             0.1612778                   1

8 0
 s    6 1.00
              4173.511  0.0018347994430301
              627.4579   0.013994995751693
              142.9021   0.068586979179805
              40.23433    0.23224092950117
              12.82021    0.46906985760962
              4.390437    0.36045489058067
 s    3 1.00
             11.626358   -0.11496102288211
               2.71628   -0.16911803366165
              0.772218     1.1458522280731
 s    1 1.00
             0.2120313                   1
 s    1 1.00
                0.0639                   1
 p    3 1.00
             11.626358   0.067580023248036
               2.71628    0.32390711142648
              0.772218    0.74089525487354
 p    1 1.00
             0.2120313                   1
 p    1 1.00
                0.0639                   1
 d    1 1.00
                   0.8                   1

9 0
 s    6 1.00
             3047.5249  0.0018347001629433
             457.36951    0.01403730124668
             103.94869   0.068842606114048
             29.210155    0.23218442062076
              9.286663    0.46794134155879
              3.163927    0.36231203217765
 s    3 1.00
             7.8682724   -0.11933240861517
             1.8812885   -0.16085421161283
             0.5442493     1.1434564825515
 s    1 1.00
             0.1687144                   1
 s    1 1.00
                0.0438                   1
 p    3 1.00
             7.8682724   0.068999095584993
             1.8812885    0.31642397975315
             0.5442493    0.74430825237435
 p    1 1.00
             0.1687144                   1
 p    1 1.00
                0.0438                   1
 d    1 1.00
                   0.8                   1

10 0
 s    3 1.00
             18.731137    0.03349459952309
             2.8253937    0.23472694665786
             0.6401217    0.81375731841339
 s    1 1.00
             0.1612778                   1

11 0
 s    3 1.00
             18.731137    0.03349459952309
             2.8253937    0.23472694665786
             0.6401217    0.81375731841339
 s    1 1.00
             0.1612778                   1

12 0
 s    3 1.00
             18.731137    0.03349459952309
             2.8253937    0.23472694665786
             0.6401217    0.81375731841339
 s    1 1.00
             0.1612778                   1

[6d]
[10f]
[15g]

[MO]
 Sym= A
 Ene=    -14.85619262
 Spin= Alpha
 Occup=    2.00000
   1    -4.9231221291603e-06
   2    1.4509704562054e-06
   3    0.00064134773428249
   4    0.0023756771306649
   5    -1.4876784865281e-07
   6    -1.1894247467967e-06
   7    4.0455140593813e-17
   8    0.00022017188501607
   9    -0.00029187799862892
  10    -6.2456028161907e-16
  11    0.0005252380457972
  12    5.521671110687e-05
  13    -3.6924042057611e-16
  14    -3.5526749593915e-05
  15    4.8133731124006e-06
  16    -2.7532581264325e-05
  17    -4.9350747892982e-05
  18    -1.2086313124372e-17
  19    -1.5240240303473e-17
  20    8.1471363283376e-06
  21    2.3266371711424e-05
  22    -3.3156088066388e-05
  23    -0.00010478310290061
  24    1.7870895171332e-05
  25    0.00012440303875237
  26    0.0015997036292576
  27    -0.0038327923446996
  28    0.00015152760056098
  29    0.00023458232699789
  30    -1.2334241093773e-17
  31    0.0015254024668601
  32    0.00047075146110594
  33    1.6090456001713e-16
  34    0.00086478025684819
  35    -0.00024943401881148
  36    3.2519843269411e-16
  37    1.0773793441927e-05
  38    3.6687724398412e-05
  39    -6.5160361984735e-05
  40    2.0255586086457e-05
  41    -1.8996464746072e-17
  42    -8.463227345826e-18
  43      0.99370335817877
  44     0.030760225645847
  45    -0.00056797004999567
  46    0.00027613945669158
  47    1.3850635801884e-05
  48    -4.3509175551873e-05
  49    -6.5629593634365e-17
  50    -0.00011548799250588
  51    0.0012514028114917
  52    3.5748591325394e-17
  53    -0.00038674672829657
  54    9.1671188000479e-05
  55    -2.1635286778536e-16
  56    -0.0061099573074242
  57    -0.0060545140812893
  58    -0.0060611593068666
  59    -5.4324422687322e-05
  60    1.3672625556404e-18
  61    8.8219464756531e-18
  62    2.1587685021019e-05
  63    0.00014937815850825
  64    0.0012874930820964
  65    -0.00022965930117972
  66    -0.00027525518898215
  67    0.00010426199212653
  68    -1.0095181670864e-17
  69    -0.00078797976884071
  70    -0.00053194784612419
  71    3.3449287255114e-17
  72    -0.00010388889503796
  73    0.00015334816656082
  74    8.7272239145452e-17
  75    -2.79843595443e-06
  76    -3.0827867397478e-06
  77    -6.3437140861436e-05
  78    -9.6019673802983e-06
  79    1.060543716439e-20
  80    2.9733497011647e-18
  81    -2.3067172419818e-06
  82    0.00033593600344727
  83    -0.00014166656720087
  84    -3.2265628666994e-05
  85    -3.6676386176414e-05
  86    -0.00075915477952201
  87    1.705636507375e-05
  88    -4.3623077988937e-05
  89    -3.7973734347228e-18
  90    -5.460028735894e-05
  91    -0.00030623852660709
  92    2.6611980005722e-17
  93    0.00040416537691557
  94    0.00014103523624335
  95    -1.5123314633522e-16
  96    6.595303933012e-06
  97    -5.7850842836941e-05
  98    -3.3110453581379e-05
  99    3.2946579024535e-05
 100    8.3872816118167e-19
 101    -3.281915169823e-18
 102    -2.1821457086921e-06
 103    -1.8172057667027e-05
 104    -0.00071488287642325
 105    0.0018169732572986
 106    3.8703953087453e-05
 107    -3.7127118148645e-05
 108    -3.6155604707554e-18
 109    -0.00028535688474071
 110    -0.00086365229669362
 111    -3.8410937586652e-17
 112    -5.954798952397e-05
 113    0.00038870413063793
 114    7.109594574499e-17
 115    -1.1557719706057e-05
 116    -2.710531587359e-05
 117    -1.684476970642e-05
 118    2.2975864496047e-05
 119    1.7900659013054e-18
 120    -9.0911340005499e-18
 121    -5.4458864813042e-05
 122    -0.00032664362117501
 123    0.00016158181405982
 124    -0.00045433725559868
 125    8.1471363281001e-06
 126    2.3266371712827e-05
 Sym= A
 Ene=    -14.77629281
 Spin= Alpha
 Occup=    2.00000
   1    6.0424120081251e-06
   2    3.5957668161947e-05
   3    -0.00075782303585573
   4    -0.0090252540044618
   5    -2.3553430292586e-05
   6    -5.6925816130746e-07
   7    -1.7072796084858e-17
   8    -0.00027320430428091
   9    -3.3764987635624e-06
  10    7.5829582912702e-17
  11    -0.0018643029282293
  12    7.4673901548544e-05
  13    -1.3698398855646e-16
  14    -7.4171797084362e-07
  15    6.0133666562057e-06
  16    4.4865949661857e-06
  17    -5.0292118836256e-06
  18    -6.8821426964412e-20
  19    -5.1224317485204e-18
  20    1.1768874898149e-05
  21    3.6098383571589e-05
  22    4.9466153326512e-06
  23    3.4676400717485e-05
  24    -2.6061706510662e-06
  25    -1.387566738453e-05
  26    -0.0013151365882891
  27     0.006475041083471
  28    -3.5538798946383e-05
  29    4.4199479135259e-05
  30    6.7894905103337e-19
  31    -0.0014703573440985
  32    0.00036856679093271
  33    5.2522399733575e-18
  34    -0.0057351628938462
  35    0.00022549097506819
  36    -1.6808489613924e-17
  37    -2.4825356419171e-05
  38    -3.3161491554055e-05
  39    -2.3110213524802e-05
  40    3.763878097738e-05
  41    -2.0202613456342e-18
  42    -8.9323302465944e-20
  43    0.00012243460141557
  44    -9.8203739718216e-05
  45    0.00015792345768349
  46    -0.00062142606468552
  47    -6.1540936815863e-05
  48    3.6960987487403e-05
  49    -8.3910746553075e-21
  50    -0.00024497892772979
  51    -7.2737200667807e-05
  52    -4.7603630991265e-19
  53    0.00041728538181037
  54    0.00065933926691972
  55    5.6167693365924e-19
  56    -5.9239910033637e-05
  57    1.8236948207051e-05
  58    -8.5361817558556e-05
  59    3.3943017063792e-05
  60    5.5858958166961e-20
  61    7.4467198982837e-19
  62    4.0975096681854e-05
  63    0.00036928652956563
  64     0.001850044363103
  65    0.0027305897722722
  66    2.0582768132101e-05
  67    -5.6108674139349e-05
  68    3.499423369034e-20
  69    -0.0008931665347615
  70    -0.00096237096540355
  71    -4.7135690856544e-19
  72    -0.00026680513662715
  73    -0.00098316954296362
  74    6.6606687080963e-18
  75    -2.265548725689e-05
  76    -0.00050722990237701
  77    -4.5929116249924e-05
  78    -6.0744671030404e-06
  79    -2.2179311855493e-19
  80    -8.1621535522304e-19
  81    4.6915697376217e-05
  82    0.00032063635072306
  83      0.99387112438045
  84     0.030454832338434
  85    -0.0018086967335746
  86    -0.0011359087772499
  87     -0.00144952651454
  88    0.0012156528801533
  89    -2.8900509152677e-17
  90    0.0021495844483221
  91    -0.0013543228321565
  92    1.9822457083918e-17
  93    -0.0010889551784237
  94    0.00039130044053911
  95    -2.0373294909965e-17
  96    -0.0057579605055505
  97    -0.0054982363021573
  98    -0.0058121996123466
  99    3.0283200867271e-05
 100    -1.0920045543536e-18
 101    -2.0592234604736e-18
 102    3.8185283572257e-06
 103    0.0002595535968737
 104    0.0029423781693061
 105    0.00063314299851838
 106    0.0001958314569914
 107    5.7826138165479e-05
 108    -1.3896033672393e-18
 109    0.00057530374640125
 110    0.0018151828559263
 111    -4.0201209019625e-18
 112    0.00098955573677814
 113    6.1788525453301e-05
 114    1.9931586236489e-17
 115    -0.00025725607723295
 116    -4.8282227227995e-05
 117    -9.6564974393097e-05
 118    -0.00010063695155609
 119    8.1238813709395e-20
 120    -4.020340292252e-19
 121    2.1837824382571e-05
 122    0.00057412820214785
 123    -3.1625701033395e-06
 124    -7.8772554005718e-05
 125    1.1768874898175e-05
 126     3.60983835716e-05
 Sym= A
 Ene=    -10.62703919
 Spin= Alpha
 Occup=    2.00000
   1    -5.6391128942667e-05
   2    -0.00018089934802243
   3    0.0022239885029314
   4    -0.039049404295163
   5    6.0801833038804e-05
   6    -2.1575219252076e-05
   7    -1.1920802886478e-16
   8    0.00071400119034254
   9    0.00036532990930749
  10    -4.7546752232676e-16
  11    -0.0074524817454404
  12    -0.0012467150787676
  13    -2.0319930446689e-16
  14    -4.5711080214796e-05
  15    -6.8558610548182e-05
  16    -4.1920289633922e-05
  17    2.7834133606391e-05
  18    -1.2915558379734e-17
  19    2.326968912697e-17
  20    -4.2998452104985e-05
  21    -0.00046566779666564
  22    -4.9643582804435e-05
  23    3.1277361017024e-05
  24    -0.00043673072977218
  25    -2.9623825316267e-05
  26    -0.0014684596806019
  27    -0.011620449886732
  28    -9.0327674841041e-06
  29    7.1291452849667e-05
  30    -1.8557940728245e-17
  31    0.0017400427870113
  32    -0.00097863468671837
  33    1.7853447464992e-16
  34    -0.034209198079797
  35     0.014136572478461
  36    1.3300099418145e-16
  37    0.00024604351895722
  38    8.7994346503832e-05
  39    5.0883912965758e-05
  40    2.628422977428e-05
  41    -1.6925510162814e-17
  42    -3.1747293879535e-18
  43    -0.00014427830320562
  44    0.00027890126695699
  45    0.00076542641978846
  46    0.0099900777717634
  47    -4.5612314707146e-05
  48    6.3976764889998e-05
  49    1.0717727900089e-18
  50    -0.00063660478855455
  51    0.00026474990228255
  52    -2.2532385335866e-17
  53     0.006845325278076
  54    -0.0032848383758678
  55    -1.2861305317566e-16
  56    -0.0004635065161243
  57    -2.5972323617328e-05
  58    0.00020506636366547
  59    0.00025433832043998
  60    8.5673677088576e-18
  61    5.6136811540908e-18
  62      0.99430639843022
  63     0.040466999047542
  64    -0.016538062237249
  65    -0.0041232998874548
  66    -0.0010310617598586
  67    -9.6880912822839e-05
  68    -1.3752566670398e-16
  69    0.0014137815656464
  70    0.00032738100195614
  71    1.0268035358208e-16
  72    -0.00024386878285689
  73    8.5167862331267e-05
  74    5.1596609905965e-17
  75    -0.0051028079930434
  76    -0.0050328671464307
  77    -0.0058311695733862
  78    -3.4798908669248e-05
  79    4.5013070488002e-18
  80    5.2517572740857e-18
  81    -7.4778975763679e-05
  82    0.00062822743221241
  83    -0.00022607911770666
  84    0.00017392104504868
  85    0.00069157050302058
  86    0.0035483270091011
  87    3.4213791129264e-05
  88    -6.1166367857311e-05
  89    -5.9757272621737e-18
  90    -6.3153465433533e-05
  91    -0.00010432449393799
  92    2.9955898826438e-17
  93    -0.00083401205634458
  94    0.0039888934266886
  95    -1.3653810511659e-16
  96    -2.7581489414287e-05
  97    -0.00022501207850015
  98    0.0002100624771055
  99    3.7874503245944e-05
 100    -1.7769330114096e-18
 101    5.0499481829763e-18
 102    -7.4896743132899e-05
 103    -1.3107246449569e-05
 104    -0.0017631038382634
 105     0.048254219153938
 106    0.00013884447851781
 107    5.0501455677604e-05
 108    1.7147352984971e-18
 109    -2.3355798521958e-05
 110    7.2594861372198e-05
 111    -5.4490117008122e-17
 112    -0.00023238565535362
 113    0.0076700583001997
 114    1.0132769359225e-16
 115    0.0001061394841938
 116    0.00016114604414305
 117    3.1367304249639e-05
 118    0.00013060866967022
 119    1.5382580125881e-18
 120    -9.6438274135093e-18
 121    8.486084356725e-06
 122    0.00048861171208557
 123    -0.00012209992300337
 124    -0.00012953113024636
 125    -4.29984521048e-05
 126    -0.00046566779666473
 Sym= A
 Ene=    -10.61037871
 Spin= Alpha
 Occup=    2.00000
   1    0.0079259152311539
   2    0.00038668116302733
   3    0.0031335588575761
   4     -0.01616918200086
   5    -0.00016135690026757
   6    6.8779785941418e-05
   7    2.9805395347984e-16
   8    0.00092715901899926
   9    -0.00061158664107236
  10    -1.6848984539278e-15
  11    -0.0040533151828613
  12    0.0015692259259619
  13    -9.5924193131902e-16
  14    -0.0007266925827044
  15    -0.0001064766110445
  16    -8.2821790391669e-05
  17    9.6412655202984e-06
  18    -1.9847676020063e-17
  19    -6.1032111981461e-17
  20    -0.0001006400963618
  21    -0.00022193629043273
  22    -0.00011355701166057
  23    -0.0006671434455344
  24      0.99413380137684
  25     0.039991542268145
  26     -0.01633859161426
  27     0.018421997085331
  28    0.00051015679114907
  29    0.00091734237973933
  30    -1.2596980231751e-16
  31    0.00028137732542932
  32    0.00025287304156907
  33    5.5174572497899e-16
  34    -0.0080380842243065
  35    -0.0080991624131819
  36    4.5644217568865e-16
  37    -0.0048442979483443
  38    -0.0050867115830605
  39    -0.0057551188677991
  40    4.090834882483e-05
  41    -5.4850807690317e-17
  42    -2.3348472442037e-17
  43    -0.00010280789827408
  44    0.00043538119362343
  45    -0.00023311677494939
  46    0.0095282636974329
  47    2.3799248452933e-05
  48    7.3280546720331e-05
  49    -3.354777486806e-18
  50    0.00013422865661542
  51    0.0012326847534951
  52    -4.39069115221e-17
  53     -0.00387814226573
  54    -0.0021740327074762
  55    -3.9885111856168e-16
  56    -0.00010783397982056
  57    -0.00042660772840237
  58    0.00028843184581774
  59    -0.00038270863589781
  60    2.9714347356159e-18
  61    2.2428768501333e-17
  62    0.00050673839034332
  63    3.7677315541623e-06
  64    -8.1266520758084e-05
  65    0.0034703356088714
  66    -0.00010976671371794
  67    -4.7107313202143e-05
  68    -2.2202838257084e-17
  69    -0.00043262187904544
  70    -0.00084232665135951
  71    9.6004462981871e-17
  72    -0.0013184893844046
  73    0.0016631662915993
  74    2.3713451529926e-16
  75    0.00022431084393111
  76    9.755676104893e-05
  77    3.6636186078296e-05
  78    8.0274531716426e-05
  79    5.1284654632497e-19
  80    9.2294422277921e-18
  81    1.7694969904336e-05
  82    0.00062379441906775
  83     3.34577041773e-05
  84    4.4293911328081e-05
  85    -0.0012095391551573
  86    0.0015832744251208
  87    -3.0006577659665e-05
  88    1.1286245417885e-05
  89    -1.5241578678784e-17
  90    0.00010767363627527
  91    -0.00036382791134743
  92    9.5260589943208e-17
  93    -3.2798716217838e-05
  94    0.00033864113999071
  95    -4.8418841362329e-16
  96    0.00019955675477311
  97    6.1183657598932e-05
  98    3.9651096150279e-05
  99    -4.3689963304127e-05
 100    8.6063862163077e-19
 101    -8.9978351960397e-18
 102     0.015276918691541
 103    0.00046452256298777
 104    0.0029056257456295
 105      -0.0110778237113
 106    0.00014360797331351
 107    -0.00024952401319671
 108    -6.12392121582e-18
 109    -0.0011255035003029
 110    0.0011033540346487
 111    -1.4223322203347e-16
 112    0.0038529688421012
 113    -0.0013104760060033
 114    4.2312434681068e-16
 115    -0.00020667831750433
 116    -0.0003926094626804
 117    -8.6456331120376e-05
 118    0.00010460017090202
 119    2.6642376364186e-18
 120    -2.1093475825382e-17
 121    -4.5434993046175e-05
 122    -0.00010682361570548
 123    -1.3411673054665e-05
 124    -0.0015864572167682
 125    -0.00010064009636239
 126    -0.0002219362904287
 Sym= A
 Ene=    -10.58317068
 Spin= Alpha
 Occup=    2.00000
   1      0.99426033007659
   2     0.040940542836442
   3    -0.022051431975633
   4     -0.03404302408658
   5    0.00029327679702724
   6    4.2704704628788e-06
   7    -1.3194740439149e-16
   8    -0.0027860090235046
   9    0.00046594484905517
  10    1.9457690399325e-16
  11    -0.0074378940639227
  12    0.0016266636328591
  13    3.9817556869495e-16
  14    -0.0056144538014834
  15    -0.0054922655264564
  16    -0.0054758368521585
  17    4.5243711582341e-05
  18    9.142534819484e-17
  19    -1.1557256345517e-16
  20    -1.7072747935908e-05
  21    0.0036144967277984
  22    2.4246227726995e-05
  23    0.0036675359627176
  24    -0.0081307305348115
  25    -0.00024795691657336
  26    0.0040143888213448
  27     0.033286450641287
  28    0.00025000530074092
  29    -6.0007168560676e-06
  30    -8.0483752091248e-18
  31    -0.0061112785223863
  32    -0.00057690668739525
  33    1.7569993244208e-17
  34    -0.016674830210531
  35    -0.0064900105701402
  36    -2.5827008314049e-16
  37    -0.00052677527455292
  38    -0.00010606287176885
  39    -3.7878902962037e-05
  40    -1.8233522760925e-06
  41    4.4356994912007e-18
  42    1.2636732194023e-17
  43    -3.0933936868511e-05
  44    -0.00019069035412339
  45    0.0012829181274339
  46    0.00031671443923091
  47    4.3947730301424e-05
  48    2.5721927272647e-06
  49    4.1364598101454e-18
  50    -0.00045948469376875
  51    -0.00088436026535152
  52    -3.3917587081277e-17
  53    -0.0025025303044286
  54    0.00063342035552157
  55    1.3767724844291e-16
  56    -9.5810754598838e-05
  57    9.809150060548e-05
  58    -0.00014209733300439
  59    6.1485136922748e-05
  60    2.9683799488412e-18
  61    2.1015502789868e-18
  62    -3.0061235445159e-05
  63    -0.0001869884409421
  64    0.00094908854045507
  65     0.010296291514757
  66    3.5494673209858e-05
  67    -2.9586669732756e-05
  68    8.5604365548485e-18
  69    -0.00072901106928583
  70     0.000300724949746
  71    -2.5504627679432e-17
  72    -0.002903041402154
  73    -0.0004506894629186
  74    -6.4842515060458e-17
  75    1.1227251566016e-05
  76    -6.0832437134143e-05
  77    -8.022405375026e-05
  78    -5.8246862861428e-06
  79    -1.2648840906745e-18
  80    3.9085919854312e-19
  81    -1.1528133334688e-05
  82    0.00012279981812289
  83    -1.4905955738119e-06
  84    1.4343155737608e-05
  85    -0.00078513981728639
  86    0.0012962846102128
  87    -9.4212753563318e-07
  88    6.4555332380842e-07
  89    3.0901282154832e-18
  90    0.00047155475692237
  91    0.00020053936933729
  92    -1.0385543268302e-17
  93    -0.00096569056710322
  94    0.00087950207128133
  95    1.1887689034611e-16
  96    -1.6629307191989e-05
  97    2.132835829143e-05
  98    -2.8657093123937e-05
  99    -6.732251978382e-06
 100    -1.6769232211359e-18
 101    9.4916173893993e-19
 102    -0.0016312316572919
 103    -9.4591503027882e-05
 104    0.0013644955061581
 105    -0.011426926577039
 106    7.1150632985804e-06
 107    5.9392000616134e-05
 108    4.1504812998481e-18
 109    0.0012450057652816
 110    0.0014488184884194
 111    -2.025775224594e-17
 112    0.0042325925676737
 113    -0.0015888712590206
 114    -6.3200325206449e-17
 115    -2.8333467961832e-05
 116    0.00015421415990334
 117    -2.4728849715343e-05
 118    1.0212879755406e-05
 119    2.1230032660538e-18
 120    -1.6081040343136e-18
 121    6.1136075365118e-05
 122    0.00067341538847057
 123    -3.3901866412349e-05
 124    -6.6660572063265e-05
 125    -1.7072747935069e-05
 126    0.0036144967277971
 Sym= A
 Ene=    -10.57856341
 Spin= Alpha
 Occup=    2.00000
   1    0.0015177690037642
   2    3.6416884099593e-05
   3    -4.9279328021913e-06
   4    -0.0065631309768865
   5    1.8027447999377e-05
   6    -9.1727367778314e-06
   7    -4.9909722351065e-17
   8    -8.7319486763388e-06
   9    0.0004891792587518
  10    1.5976267175504e-16
  11    -0.0020572385547947
  12    0.00074156237230803
  13    -4.2666118871661e-17
  14    5.6324918067193e-05
  15    1.3386891428726e-05
  16    -2.2000108729675e-05
  17    3.3725078984196e-05
  18    1.6468550573555e-17
  19    9.9089487590054e-18
  20    3.2155676797411e-06
  21    -1.4996091883053e-06
  22    -1.8997096328843e-05
  23    0.00030897226181849
  24    -0.015653515093305
  25    -0.0007368925769033
  26    0.0046890338471751
  27     0.022605486198775
  28    -0.00023094703186673
  29    0.00021880021322173
  30    5.431592408267e-18
  31     0.001757841391797
  32    -0.0020148543454777
  33    -3.4347982047989e-17
  34    0.0019492515501864
  35    -0.0030319209501711
  36    2.0781405340851e-17
  37    -0.00017307020194784
  38    -0.00021864630233094
  39    0.0001125730397541
  40    0.00013817709961627
  41    5.5613084847695e-18
  42    -2.5719940873121e-19
  43    2.6017518537723e-05
  44    -1.3458011465739e-05
  45    -0.00073399971740339
  46    -0.0014450698691693
  47    2.038482030082e-05
  48    -7.1436825130053e-05
  49    -2.0220177953827e-19
  50    -0.00043400267382257
  51    0.00014018870473019
  52    8.8860111183695e-18
  53    -1.3766132547233e-05
  54    0.0022995909604451
  55    8.2215392945505e-18
  56    4.0469496811194e-05
  57    0.00022369721905181
  58     9.43028483207e-06
  59    2.7367001202311e-05
  60    -5.8651906075309e-19
  61    -2.2340159694851e-18
  62    0.00011440498060449
  63    -4.7461351080637e-06
  64    -0.00079721877153968
  65    -0.0041277065254933
  66    -7.5933749601227e-05
  67    -2.7855631727457e-05
  68    1.7546153350978e-18
  69    -0.00079558257203122
  70    0.00022134149092902
  71    -5.6065274438642e-18
  72    0.0028929653690315
  73    -0.00052241800304885
  74    -1.922014028112e-17
  75    0.00014484799355451
  76    9.426135529264e-05
  77    2.9757537170715e-05
  78    7.3440503349877e-05
  79    -9.4919555998315e-20
  80    -1.1501674999661e-18
  81    2.3133871058246e-05
  82    0.00050040009569508
  83    -0.00011985410499868
  84    0.00024587348879594
  85    0.00099465361576111
  86      0.01085914289904
  87    9.6510130917088e-05
  88    -6.9313917947795e-05
  89    2.7135800532724e-18
  90    -0.00036930358541637
  91    0.00054757513912667
  92    -1.2974132130971e-17
  93    -0.0045046230330643
  94    -0.00031819046850987
  95    4.8245373753432e-17
  96    -0.00038332254051005
  97    4.8142593300139e-05
  98    0.00022427028119185
  99    -0.00014451689252577
 100    4.9130609123818e-19
 101    1.0468277320576e-18
 102      0.99411436018797
 103     0.040341135660602
 104    -0.017707007803725
 105    -0.016723705109502
 106    0.0005097739267564
 107    0.00053078501119964
 108    -1.3327490582546e-18
 109    -0.00017190594399006
 110    -0.0024494932504121
 111     9.40272665918e-18
 112    -0.00032496370621744
 113    -0.0020399020693156
 114    -5.6616957997444e-17
 115    -0.0053023420882736
 116    -0.0052364102004206
 117    -0.0058859398271135
 118    -2.8994719894283e-05
 119    2.9039499296341e-18
 120    -1.4796204021827e-18
 121    -0.00021334586788523
 122    0.0011020136250593
 123    -1.5664506522155e-05
 124    -0.00031059151952911
 125    3.2155676797595e-06
 126    -1.4996091884526e-06
 Sym= A
 Ene=     -1.16216985
 Spin= Alpha
 Occup=    2.00000
   1    -0.012840652881669
   2     0.022956875359284
   3     0.010122461759664
   4      0.23791013992502
   5      0.01637523269041
   6    0.0015700222190746
   7    -2.6190800830189e-15
   8    0.00047862605694586
   9    0.0054029455755998
  10    2.1732388240601e-14
  11     0.048863827424933
  12    0.00064272045985408
  13    1.0111034664286e-14
  14    0.0033057632564138
  15    -0.00070129373924666
  16    -0.00024852664666696
  17    0.00059256668099896
  18    -1.6532050251331e-16
  19    9.5604269943414e-16
  20    0.0046814640572858
  21    -0.00063439492143773
  22    0.0046415380356211
  23    -0.00044129768150097
  24    -0.078808958951288
  25      0.14297868732375
  26     0.047990662323297
  27     0.085397091317992
  28     0.077242348047057
  29     0.041336881377684
  30    -6.4454896578101e-16
  31    -0.016254880246045
  32    -0.0080054637901505
  33    -7.3464664516232e-15
  34      0.19708060498633
  35    -0.059492183406562
  36    -5.2122209466071e-15