[Molden Format]
made by pyscf v[1.7.6]
[Atoms] (AU)
C   1   6    -4.62758062793865     0.00000000000000     0.01350668519450
C   2   6    -1.78363013471245     0.00000000000000    -0.02162194396109
C   3   6    -0.43617210876999     2.25784658776742    -0.01585096604107
C   4   6     2.18497905076037     2.26363289136631     0.00666230504120
C   5   6     3.50678313749332     0.00000000000000     0.02000082350787
C   6   6     2.18497905076037    -2.26363289136631     0.00666230504120
C   7   6    -0.43617210876999    -2.25784658776742    -0.01585096604107
H   8   1    -5.33628270781090     0.00000000000000     1.94996326127883
H   9   1    -5.38398510216782    -1.66746744151346    -0.92544013592081
H   10   1    -1.45394985672638     4.03331042221065    -0.03440726400206
H   11   1     3.19657593920031     4.03966868921567     0.00734765201480
H   12   1     5.54984086501788     0.00000000000000     0.03240020478242
H   13   1     3.19657593920031    -4.03966868921567     0.00734765201480
H   14   1    -1.45394985672638    -4.03331042221065    -0.03440726400206
H   15   1    -5.38398510216782     1.66746744151346    -0.92544013592081
[GTO]
1 0
 s    6 1.00
             3047.5249  0.0018347001629433
             457.36951    0.01403730124668
             103.94869   0.068842606114048
             29.210155    0.23218442062076
              9.286663    0.46794134155879
              3.163927    0.36231203217765
 s    3 1.00
             7.8682724   -0.11933240861517
             1.8812885   -0.16085421161283
             0.5442493     1.1434564825515
 s    1 1.00
             0.1687144                   1
 s    1 1.00
                0.0438                   1
 p    3 1.00
             7.8682724   0.068999095584993
             1.8812885    0.31642397975315
             0.5442493    0.74430825237435
 p    1 1.00
             0.1687144                   1
 p    1 1.00
                0.0438                   1
 d    1 1.00
                   0.8                   1

2 0
 s    6 1.00
             3047.5249  0.0018347001629433
             457.36951    0.01403730124668
             103.94869   0.068842606114048
             29.210155    0.23218442062076
              9.286663    0.46794134155879
              3.163927    0.36231203217765
 s    3 1.00
             7.8682724   -0.11933240861517
             1.8812885   -0.16085421161283
             0.5442493     1.1434564825515
 s    1 1.00
             0.1687144                   1
 s    1 1.00
                0.0438                   1
 p    3 1.00
             7.8682724   0.068999095584993
             1.8812885    0.31642397975315
             0.5442493    0.74430825237435
 p    1 1.00
             0.1687144                   1
 p    1 1.00
                0.0438                   1
 d    1 1.00
                   0.8                   1

3 0
 s    6 1.00
             3047.5249  0.0018347001629433
             457.36951    0.01403730124668
             103.94869   0.068842606114048
             29.210155    0.23218442062076
              9.286663    0.46794134155879
              3.163927    0.36231203217765
 s    3 1.00
             7.8682724   -0.11933240861517
             1.8812885   -0.16085421161283
             0.5442493     1.1434564825515
 s    1 1.00
             0.1687144                   1
 s    1 1.00
                0.0438                   1
 p    3 1.00
             7.8682724   0.068999095584993
             1.8812885    0.31642397975315
             0.5442493    0.74430825237435
 p    1 1.00
             0.1687144                   1
 p    1 1.00
                0.0438                   1
 d    1 1.00
                   0.8                   1

4 0
 s    6 1.00
             3047.5249  0.0018347001629433
             457.36951    0.01403730124668
             103.94869   0.068842606114048
             29.210155    0.23218442062076
              9.286663    0.46794134155879
              3.163927    0.36231203217765
 s    3 1.00
             7.8682724   -0.11933240861517
             1.8812885   -0.16085421161283
             0.5442493     1.1434564825515
 s    1 1.00
             0.1687144                   1
 s    1 1.00
                0.0438                   1
 p    3 1.00
             7.8682724   0.068999095584993
             1.8812885    0.31642397975315
             0.5442493    0.74430825237435
 p    1 1.00
             0.1687144                   1
 p    1 1.00
                0.0438                   1
 d    1 1.00
                   0.8                   1

5 0
 s    6 1.00
             3047.5249  0.0018347001629433
             457.36951    0.01403730124668
             103.94869   0.068842606114048
             29.210155    0.23218442062076
              9.286663    0.46794134155879
              3.163927    0.36231203217765
 s    3 1.00
             7.8682724   -0.11933240861517
             1.8812885   -0.16085421161283
             0.5442493     1.1434564825515
 s    1 1.00
             0.1687144                   1
 s    1 1.00
                0.0438                   1
 p    3 1.00
             7.8682724   0.068999095584993
             1.8812885    0.31642397975315
             0.5442493    0.74430825237435
 p    1 1.00
             0.1687144                   1
 p    1 1.00
                0.0438                   1
 d    1 1.00
                   0.8                   1

6 0
 s    6 1.00
             3047.5249  0.0018347001629433
             457.36951    0.01403730124668
             103.94869   0.068842606114048
             29.210155    0.23218442062076
              9.286663    0.46794134155879
              3.163927    0.36231203217765
 s    3 1.00
             7.8682724   -0.11933240861517
             1.8812885   -0.16085421161283
             0.5442493     1.1434564825515
 s    1 1.00
             0.1687144                   1
 s    1 1.00
                0.0438                   1
 p    3 1.00
             7.8682724   0.068999095584993
             1.8812885    0.31642397975315
             0.5442493    0.74430825237435
 p    1 1.00
             0.1687144                   1
 p    1 1.00
                0.0438                   1
 d    1 1.00
                   0.8                   1

7 0
 s    6 1.00
             3047.5249  0.0018347001629433
             457.36951    0.01403730124668
             103.94869   0.068842606114048
             29.210155    0.23218442062076
              9.286663    0.46794134155879
              3.163927    0.36231203217765
 s    3 1.00
             7.8682724   -0.11933240861517
             1.8812885   -0.16085421161283
             0.5442493     1.1434564825515
 s    1 1.00
             0.1687144                   1
 s    1 1.00
                0.0438                   1
 p    3 1.00
             7.8682724   0.068999095584993
             1.8812885    0.31642397975315
             0.5442493    0.74430825237435
 p    1 1.00
             0.1687144                   1
 p    1 1.00
                0.0438                   1
 d    1 1.00
                   0.8                   1

8 0
 s    3 1.00
             18.731137    0.03349459952309
             2.8253937    0.23472694665786
             0.6401217    0.81375731841339
 s    1 1.00
             0.1612778                   1

9 0
 s    3 1.00
             18.731137    0.03349459952309
             2.8253937    0.23472694665786
             0.6401217    0.81375731841339
 s    1 1.00
             0.1612778                   1

10 0
 s    3 1.00
             18.731137    0.03349459952309
             2.8253937    0.23472694665786
             0.6401217    0.81375731841339
 s    1 1.00
             0.1612778                   1

11 0
 s    3 1.00
             18.731137    0.03349459952309
             2.8253937    0.23472694665786
             0.6401217    0.81375731841339
 s    1 1.00
             0.1612778                   1

12 0
 s    3 1.00
             18.731137    0.03349459952309
             2.8253937    0.23472694665786
             0.6401217    0.81375731841339
 s    1 1.00
             0.1612778                   1

13 0
 s    3 1.00
             18.731137    0.03349459952309
             2.8253937    0.23472694665786
             0.6401217    0.81375731841339
 s    1 1.00
             0.1612778                   1

14 0
 s    3 1.00
             18.731137    0.03349459952309
             2.8253937    0.23472694665786
             0.6401217    0.81375731841339
 s    1 1.00
             0.1612778                   1

15 0
 s    3 1.00
             18.731137    0.03349459952309
             2.8253937    0.23472694665786
             0.6401217    0.81375731841339
 s    1 1.00
             0.1612778                   1

[6d]
[10f]
[15g]

[MO]
 Sym= A
 Ene=    -10.58701435
 Spin= Alpha
 Occup=    2.00000
   1    0.0096866507344968
   2    0.00048145142558533
   3    0.0021453437564506
   4    -0.0091455978764014
   5    -0.00012742595693177
   6    2.2988948526932e-15
   7    -5.7805824708213e-06
   8    0.00093790470620609
   9    4.1277051992893e-15
  10    0.00011232876153621
  11    -0.0036178077988567
  12    -8.5833056837139e-14
  13    6.526395322262e-06
  14    -0.00065990025024089
  15    -0.00014228579894715
  16    -4.7234209833003e-05
  17    1.4923873497674e-15
  18    4.2834938467179e-06
  19    -2.493097484642e-16
  20      0.99323464225392
  21     0.040139389497835
  22    -0.020732751892249
  23      0.09111751009266
  24    7.5188639638761e-05
  25    -1.542569131077e-15
  26    2.1797529739774e-05
  27    -0.0023677322698335
  28    -3.8788245766308e-14
  29    -0.00010054078541521
  30     0.016071787259715
  31    -6.1965093830275e-13
  32    0.00020565775856559
  33    -0.0052453320938835
  34    -0.0050558103889406
  35    -0.0056683928711121
  36    -3.4351454542649e-15
  37    5.9682654547507e-07
  38    -1.3173449626356e-16
  39      0.03156391459635
  40    0.0010063103040513
  41    0.0059010561098186
  42    -0.062675510129383
  43    9.974293088477e-05
  44    0.00024732855088535
  45    7.7045148480323e-07
  46    3.0660262614973e-05
  47    -0.0031927929512912
  48    3.1735234135595e-05
  49    -0.0045489075126406
  50     0.010783305066164
  51    -7.0736395956148e-05
  52    -0.00041647644572273
  53    -0.00055948849843148
  54    -0.0002562112720423
  55    -0.00021243210191751
  56    -9.822928691937e-07
  57    -5.7424338964796e-06
  58    0.0011864827882158
  59    7.3255164393014e-05
  60    -0.0028286635189587
  61     0.034072881715016
  62    1.8363185995911e-05
  63    -2.6532973850634e-05
  64    -1.8428281524104e-07
  65    0.00062534350029039
  66     0.002009990857588
  67    -5.4295200345848e-06
  68    -0.0044848954704378
  69    -0.0040574389264052
  70    -5.0127519508146e-05
  71    6.9438391317515e-05
  72    3.4458671722763e-05
  73    9.2695581298238e-06
  74    4.4354545702669e-05
  75    1.5263810765299e-06
  76    -1.2953795444496e-07
  77    -0.0005393370117083
  78    -0.00029592812992517
  79    0.0037700437338239
  80    -0.023638740245283
  81    1.9073033870996e-05
  82    3.5423085450622e-15
  83    -1.228060581905e-06
  84    -0.0019338616827749
  85    -5.2447218503435e-14
  86    -1.1197669443465e-05
  87    0.0048737154568158
  88    3.0857881528792e-12
  89    5.012936809461e-05
  90    -1.3206790948284e-05
  91    -5.5477248022582e-06
  92    -0.00011272134769458
  93    1.7629825025797e-15
  94    1.0281758724851e-06
  95    1.2614552480982e-17
  96    0.0011864827882182
  97    7.325516439781e-05
  98    -0.0028286635189707
  99      0.03407288171722
 100    1.8363185994368e-05
 101    2.653297384844e-05
 102    -1.8428281523713e-07
 103    0.0006253435001975
 104    -0.0020099908575796
 105    -5.4295200353817e-06
 106    -0.0044848954656684
 107    0.0040574389290213
 108    -5.0127519464176e-05
 109    6.9438391320182e-05
 110    3.4458671719901e-05
 111    9.2695581284934e-06
 112    -4.4354545706466e-05
 113    1.5263810765973e-06
 114    1.2953795439294e-07
 115     0.031563914596151
 116    0.0010063103040635
 117     0.005901056109678
 118    -0.062675510123975
 119    9.9742930888234e-05
 120    -0.00024732855087836
 121    7.7045148470604e-07
 122    3.0660262564251e-05
 123    0.0031927929512076
 124    3.173523413508e-05
 125    -0.0045489075097044
 126    -0.010783305067571
 127    -7.0736395932988e-05
 128    -0.00041647644572666
 129    -0.0005594884984325
 130    -0.00025621127203626
 131    0.00021243210192065
 132    -9.8229286930519e-07
 133    5.7424338965062e-06
 134    -0.00016768268728867
 135    -1.9299392550754e-05
 136    -0.00012509966991848
 137    0.00012719192396712
 138    -6.1298215728168e-05
 139    0.00093765781063929
 140    -9.1579032805639e-05
 141    -0.00047004985161061
 142    -4.541114090305e-06
 143    0.00064219819271999
 144    -9.1579032799307e-05
 145    -0.00047004985159601
 146    -6.1298215725899e-05
 147    0.00093765781057554
 148    -0.00012509966991455
 149    0.0001271919239431
 Sym= A
 Ene=    -10.57729184
 Spin= Alpha
 Occup=    2.00000
   1    -0.00033708225388334
   2    -0.00022720148354261
   3    0.00076929734631518
   4    0.0089222641332483
   5    -6.7371329207394e-05
   6    5.4679294573319e-14
   7    -5.299740149986e-06
   8    0.00058126887768431
   9    -3.5349700077772e-13
  10    6.6026487162169e-05
  11    0.0024856930071062
  12    -2.0511625130734e-12
  13    -1.2467645324739e-05
  14    -2.7403386429261e-07
  15    -7.1420407537597e-05
  16    -8.6386522517122e-05
  17    -1.3154739625852e-14
  18    -1.6814653531855e-06
  19    1.441721629335e-14
  20    -0.0072036711881039
  21    -0.00027029550303041
  22    -0.0034630914594331
  23    -0.0039957335139444
  24    -5.9727666290914e-05
  25    2.6447075410707e-14
  26    2.2191859747944e-06
  27    -0.0013774072303088
  28    1.9637304323688e-13
  29    -4.6407540575579e-05
  30    0.0028278413887669
  31    4.8779603776546e-11
  32    -2.641673163188e-05
  33    6.1616655601638e-05
  34    3.4234032524353e-05
  35    5.1273771854226e-05
  36    -5.4247082187357e-15
  37    4.6700538447711e-06
  38    -1.6268143904701e-15
  39     0.089070892117306
  40     0.003211203056077
  41    0.0048619738067053
  42    -0.0085044331594804
  43    -0.00018939596532316
  44    4.1488590198445e-05
  45    -2.0639677075881e-06
  46    0.0022746709382482
  47    -0.0020296932686595
  48    3.6892829835344e-05
  49    -0.00011354711544692
  50    0.0018728476029101
  51    -3.9545733602954e-05
  52    -0.00077572640899884
  53    -0.00056741606492185
  54    -0.00065433587350534
  55    -2.4016419632761e-05
  56    -8.20297159016e-07
  57    -2.2633802908079e-06
  58      0.67984292620964
  59     0.027576454739926
  60    -0.014327404755226
  61     0.021379940109696
  62    -0.00012729547656477
  63    -0.00010171507820721
  64    -2.7131156052412e-06
  65    0.0019424503278737
  66    0.0026686983142035
  67    1.2251577429903e-05
  68    -0.00062705006695363
  69    -0.0056184678490018
  70    4.3188890006907e-05
  71    -0.0036976960916286
  72    -0.0037182643511611
  73    -0.0040199586488762
  74    -4.9021588043886e-05
  75    3.1464636920683e-06
  76    -1.5899817670002e-06
  77       0.2188620921617
  78     0.008433544411817
  79    0.0051554418236512
  80    -0.029270958362447
  81    0.00019860134460869
  82    1.5623247139398e-13
  83    -3.6291988452558e-08
  84    -0.0039971725839266
  85    -8.7651908574485e-13
  86    -3.0946902272345e-05
  87    0.0042212701054456
  88    -2.5307088805915e-11
  89    8.359513314588e-06
  90    -0.0014297869414544
  91    -0.0017494400748707
  92    -0.001410842943037
  93    -1.0259418508607e-13
  94    -8.9858594722667e-08
  95    -1.3889897085899e-15
  96      0.67984292689141
  97     0.027576454767588
  98    -0.014327404766312
  99     0.021379940122049
 100    -0.00012729547667151
 101    0.00010171507838436
 102    -2.7131156069429e-06
 103    0.0019424503285504
 104    -0.0026686983152592
 105    1.2251577435209e-05
 106    -0.00062705011421453
 107    0.0056184678227938
 108    4.3188889512077e-05
 109    -0.0036976960953505
 110    -0.0037182643549601
 111    -0.0040199586529217
 112    4.9021588145148e-05
 113    3.1464636952876e-06
 114    1.5899817688511e-06
 115     0.089070892210164
 116    0.0032112030597923
 117    0.0048619738081817
 118    -0.0085044330963563
 119    -0.0001893959654647
 120    -4.1488590198141e-05
 121    -2.0639677112676e-06
 122    0.0022746709392114
 123    0.0020296932692258
 124    3.6892829849886e-05
 125    -0.00011354717503138
 126    -0.0018728475626322
 127    -3.954573394194e-05
 128    -0.00077572640979063
 129    -0.00056741606549243
 130    -0.00065433587403446
 131    2.4016419645177e-05
 132    -8.2029716205124e-07
 133    2.2633802909605e-06
 134    -3.3996125204041e-05
 135    -0.00012970249386007
 136    -2.8177168675179e-05
 137    -2.2533112948458e-05
 138    -3.2130348161138e-05
 139    0.0010512526039951
 140    -0.00022844008993076
 141    0.00066300794063754
 142    -6.2473007700357e-05
 143    0.0016551641475386
 144    -0.00022844009008172
 145    0.0006630079416854
 146    -3.2130348171851e-05
 147    0.0010512526041497
 148    -2.8177168522718e-05
 149    -2.2533113332722e-05
 Sym= A
 Ene=    -10.57716539
 Spin= Alpha
 Occup=    2.00000
   1    -1.5131292062842e-13
   2    -1.0314898287649e-13
   3    3.5376369283141e-13
   4    5.4494061500124e-12
   5    -3.1981635168995e-14
   6    -2.9103556765586e-05
   7    -1.7138603667226e-14
   8    3.2449516928442e-13
   9    0.00026061235082765
  10    1.4602001489071e-13
  11    1.4324501286537e-12
  12    0.0003566375377036
  13    3.4596029062363e-14
  14    8.784795147689e-15
  15    -3.3500411910346e-14
  16    -3.5888288357172e-14
  17    2.8020712201603e-05
  18    -2.7957075570525e-15
  19    -1.6252450740681e-05
  20    -3.6530094241381e-12
  21    -1.1240816115505e-13
  22    -1.9115332160263e-12
  23    1.6575301875638e-11
  24    -3.3011105299187e-14
  25    -6.0295195645988e-05
  26    3.4232555376785e-15
  27    -6.3019998403902e-13
  28    -1.0964196512847e-05
  29    -5.7807799575553e-14
  30    4.4948685089848e-12
  31    -0.0070315899978279
  32    2.7211385914682e-14
  33    3.7334865138207e-14
  34    2.4716200765618e-14
  35    3.6760291860979e-14
  36    1.2345956781766e-05
  37    5.7623494999798e-15
  38    -8.333235370059e-08
  39     0.099386790383502
  40    0.0039585201235909
  41    0.0012355684560435
  42    -0.005055573124503
  43    -0.00017477650664185
  44    9.2794174432524e-08
  45    -1.4670367424803e-06
  46    0.0011610193523578
  47    -0.0005124882267027
  48    1.137413991042e-05
  49    -0.0058315014455356
  50    -0.0018336877783233
  51    -5.0277087343305e-05
  52    -0.00086743373508836
  53    -0.00063618313245157
  54    -0.00058387293128233
  55    -2.3616629234362e-05
  56    -2.768876353426e-06
  57    -1.3722363419558e-07
  58       0.6959151155356
  59      0.02824553213027
  60    -0.011487233122306
  61     0.024119301343434
  62    -6.4468566387569e-05
  63    -0.00018731338567614
  64    -1.5856022797504e-06
  65    0.00035890534990276
  66    0.0012325181942277
  67    3.4140466821937e-06
  68    -0.0048313531473802
  69    -0.0032108935142077
  70    -3.4652433159813e-05
  71    -0.0037807854410947
  72    -0.0038979677041654
  73    -0.0041283140652063
  74    -9.5834468209894e-05
  75    2.8634666412712e-06
  76    -1.817379725188e-06
  77    1.1225559124988e-10
  78    4.3185453217599e-12
  79    2.6582626532982e-12
  80    -2.7726726080791e-11
  81    9.8970914626564e-14
  82    -0.00029044909594336
  83    -6.1630789654534e-16
  84    -2.0777278392682e-12
  85    0.0020143066793995
  86    -1.3540373880407e-14
  87    3.5482588839665e-12
  88    -0.00098266870139006
  89    -1.2469828152365e-14
  90    -7.3113198346515e-13
  91    -8.8122292740523e-13
  92    -7.3117941248715e-13
  93    0.00020186360657451
  94    -1.7252665501843e-16
  95    2.3722919117607e-06
  96     -0.69591511487235
  97    -0.028245532103352
  98     0.011487233108225
  99    -0.024119301312042
 100    6.446856626596e-05
 101    -0.00018731338557625
 102    1.585602276212e-06
 103    -0.00035890534809593
 104    0.0012325181914115
 105    -3.4140466755602e-06
 106    0.0048313531498283
 107    -0.0032108935032234
 108    3.4652433312808e-05
 109    0.0037807854374924
 110     0.003897967700518
 111    0.0041283140612856
 112    -9.5834468169003e-05
 113    -2.8634666375405e-06
 114    -1.8173797234316e-06
 115    -0.099386790292581
 116    -0.0039585201202939
 117    -0.0012355684513344
 118    0.0050555730995448
 119    0.00017477650645615
 120    9.2794141802905e-08
 121     1.46703673926e-06
 122    -0.0011610193502149
 123    -0.00051248822466393
 124    -1.1374139852342e-05
 125    0.0058315014489624
 126    -0.001833687787112
 127    5.0277087222065e-05
 128    0.00086743373430093
 129    0.00063618313187254
 130    0.00058387293061956
 131    -2.3616629206542e-05
 132    2.7688763527855e-06
 133    -1.3722362856151e-07
 134    -7.0414527036537e-15
 135    -2.3850688875372e-13
 136    4.3145757529822e-05
 137    -1.5896591442593e-05
 138    -2.5391886211234e-05
 139    0.00037960213312672
 140    -0.00010456667648991
 141    0.00085883951804702
 142    -3.9350619037801e-14
 143    9.3207198190907e-13
 144    0.0001045666762653
 145    -0.00085883951749127
 146    2.5391886162955e-05
 147    -0.00037960213196519
 148    -4.3145757558226e-05
 149    1.5896591500887e-05
 Sym= A
 Ene=    -10.57457362
 Spin= Alpha
 Occup=    2.00000
   1    0.0003794106898864
   2    3.1316596040218e-05
   3    0.00087469090668778
   4    -0.0010433267999028
   5    2.4411269450838e-05
   6    1.4078975073446e-14
   7    7.2450259537195e-06
   8    0.00031000138528452
   9    -1.5616614674424e-14
  10    -6.7897771067577e-05
  11    0.00013130978768857
  12    4.7651620415331e-14
  13    -1.3577851260293e-05
  14    -1.1599007983943e-05
  15    -9.6236091629839e-06
  16    8.5978467019514e-06
  17    7.9947458836481e-15
  18    -5.5143997019726e-07
  19    -1.9434662754982e-16
  20    0.0096005922202945
  21    0.00016637455559166
  22    0.0030795816860242
  23     -0.01100302557077
  24    -9.5324761804425e-06
  25    6.9070566753763e-15
  26    -6.8329348357449e-07
  27    0.0024152616533231
  28    -3.2242384157294e-13
  29    2.4462062251211e-05
  30    -0.0049230667669662
  31    1.9199841530087e-11
  32    2.5389286717831e-05
  33    -4.4971909310111e-05
  34    5.9496964282789e-05
  35    -0.00015210239021802
  36    -8.1174418699875e-15
  37    -4.3644290330787e-07
  38    -8.412281109335e-16
  39      -0.1378181449994
  40    -0.0054457590621223
  41    -0.0023715862983201
  42     0.019086786231474
  43    -1.1969702146007e-06
  44    1.9414196648119e-05
  45    4.1194290121408e-07
  46    -0.0013227974482359
  47    0.0022181697125548
  48    -2.2763965202741e-05
  49    0.0036209653858359
  50    -0.0017037537058152
  51    -4.7249092597609e-06
  52    0.00088032159741822
  53    0.00079965740677864
  54    0.00087199452924678
  55    -4.8545537181668e-05
  56    3.9395402761718e-07
  57    6.6256107560864e-07
  58     -0.13606664604617
  59    -0.005814540567542
  60    0.0095727436190816
  61    -0.041081233161038
  62    -9.4336010663554e-05
  63    0.00029158097286621
  64    -1.0964629100097e-06
  65    -0.00074017325551277
  66    -0.0043409249029724
  67    8.4460649433072e-07
  68    0.0021083374854479
  69    0.0069174899862386
  70    4.3390953802272e-05
  71    0.00054353316059107
  72    0.00040669993674455
  73    0.00073567399818836
  74    0.00021060350746141
  75    -2.2443804062753e-06
  76    2.5287789075604e-06
  77      0.95580213151131
  78     0.038993798096548
  79    -0.021525766329827
  80     0.056476561523681
  81    -0.00035685484654235
  82    -7.3069541620157e-15
  83    -7.0848934736604e-06
  84    0.0048754109030459
  85    3.6583916810436e-13
  86    4.6249517901594e-05
  87    -0.011985062227444
  88    -1.6691476947883e-11
  89    -0.00014216062903569
  90    -0.005274645644921
  91    -0.0049276161148633
  92    -0.0056224195362038
  93    -1.3206260804099e-14
  94    2.4166734427453e-06
  95    -2.365215646294e-16
  96     -0.13606664604148
  97    -0.0058145405673358
  98    0.0095727436189774
  99    -0.041081233148409
 100    -9.4336010667493e-05
 101    -0.00029158097286446
 102    -1.096462909959e-06
 103    -0.00074017325486063
 104      0.00434092490328
 105    8.4460650069734e-07
 106     0.002108337453107
 107    -0.0069174900032552
 108    4.3390953451863e-05
 109    0.00054353316054475
 110    0.0004066999367363
 111    0.00073567399816267
 112    -0.00021060350744781
 113    -2.2443804063199e-06
 114    -2.5287789073892e-06
 115     -0.13781814498494
 116    -0.0054457590615684
 117    -0.0023715862982443
 118     0.019086786227001
 119    -1.1969702234431e-06
 120    -1.9414196630169e-05
 121     4.11942901018e-07
 122    -0.0013227974476246
 123    -0.0022181697129212
 124    -2.2763965199916e-05
 125    0.0036209653508687
 126    0.0017037537241351
 127    -4.7249094432788e-06
 128    0.00088032159734485
 129    0.00079965740666839
 130    0.00087199452914545
 131    4.8545537193568e-05
 132    3.9395402766575e-07
 133    -6.625610754527e-07
 134    2.655002960066e-06
 135    -5.4956552170607e-05
 136    9.7138417434978e-06
 137    -0.00016587319366443
 138    -5.0810944617006e-05
 139    -0.00088228853681857
 140    5.5255453469722e-05
 141    0.0008731920538422
 142    -0.00020244493004682
 143    0.00043586897601582
 144    5.5255453491085e-05
 145    0.00087319205368614
 146    -5.0810944635619e-05
 147    -0.00088228853677509
 148    9.7138417730331e-06
 149    -0.00016587319379771
 Sym= A
 Ene=    -10.57412705
 Spin= Alpha
 Occup=    2.00000
   1    8.7967083462234e-14
   2    7.3756475095138e-14
   3    -7.4002704682802e-13
   4    -1.2174167512374e-11
   5    5.8291697452919e-14
   6    -2.7017000804912e-05
   7    -6.2229141183159e-15
   8    -5.1272867010181e-13
   9    -0.00030325691558847
  10    6.2279364763276e-14
  11    -3.9086544567416e-12
  12     0.001944470495652
  13    7.3083596284238e-14
  14    -9.3618478840295e-15
  15    3.6417349200943e-14
  16    2.6965732392931e-14
  17    -8.8010568036704e-06
  18    -1.7479390187421e-15
  19    3.5237534470103e-06
  20    -2.900426642617e-13
  21    7.9023522192028e-14
  22    -6.2925897793698e-13
  23    1.0853886105448e-10
  24    -6.1463007633845e-15
  25    -0.00033727117790911
  26    2.4376381118304e-16
  27    -6.6388386616893e-13
  28    0.0029752461328268
  29    -9.3661710477458e-15
  30    1.8878854505993e-11
  31    -0.019693843617597
  32    1.1440806221619e-13
  33    6.1038824473992e-14
  34    5.0523447767119e-14
  35    4.4429233137301e-14
  36    -0.00018503333969424
  37    7.5677155534359e-16
  38    8.5220301563797e-07
  39       0.6959597070439
  40     0.028360642863411
  41    -0.013167080008634
  42     0.054913754124254
  43    0.00014309874213889
  44    -0.00016522365338519
  45    2.6897422277726e-06
  46    -0.00050307156145968
  47    0.0015880277126196
  48    -5.1351444667227e-06
  49    -0.00050505360088549
  50    -0.011225031554753
  51    1.0803743340598e-05
  52    -0.0036787605175611
  53    -0.0038875086001403
  54    -0.0041036906801047
  55    9.8011155239539e-05
  56    4.7491241471507e-06
  57    -1.1728106239055e-06
  58    -0.099627606058407
  59    -0.0041166908103769
  60    0.0043036064931557
  61    -0.027789630550012
  62    0.00017928544121824
  63    7.3296802964975e-05
  64    1.6072866996756e-06
  65    -0.0014436386414328
  66    -0.00088880695944893
  67    -1.1676713575861e-05
  68    0.0019957906340178
  69    0.0052344902052694
  70    1.3963470815687e-05
  71    0.00018768275710137
  72    0.00047547732405293
  73    0.00059775774597169
  74    6.0909932203327e-05
  75    -3.618350216931e-06
  76    1.1685330979948e-06
  77    9.6627585450044e-12
  78    2.8248437080697e-13
  79    7.0339196732831e-13
  80    -9.5339221202989e-11
  81    -2.1914991163143e-14
  82    -2.4244539213429e-05
  83    -4.0584128325544e-16
  84    -2.9986520693405e-13
  85    -6.3048376088984e-05
  86    8.4799286023484e-16
  87    2.0803433567618e-11
  88     0.004539746369678
  89    2.3052481068646e-13
  90    -8.1158782297649e-14
  91    -9.4279435635887e-14
  92    -1.0991716185833e-13
  93    -8.342526894076e-05
  94    2.6139227803017e-16
  95    -1.0003145724496e-06
  96     0.099627606049915
  97    0.0041166908101764
  98    -0.0043036064947761
  99      0.02778963078975
 100    -0.00017928544119535
 101    7.3296802915913e-05
 102    -1.6072866975225e-06
 103     0.001443638642017
 104    -0.00088880695990329
 105    1.1676713569689e-05
 106    -0.0019957906671531
 107    0.0052344902352686
 108    -1.396347118054e-05
 109    -0.00018768275702982
 110    -0.000475477323965
 111    -0.00059775774585921
 112    6.0909932211472e-05
 113    3.6183502171532e-06
 114    1.1685330971845e-06
 115     -0.69595970703805
 116    -0.028360642863352
 117     0.013167080010382
 118    -0.054913754364994
 119    -0.0001430987421432
 120    -0.00016522365331615
 121    -2.6897422276133e-06
 122    0.00050307156228773
 123    0.0015880277130986
 124    5.1351444798864e-06
 125    0.00050505356523268
 126     -0.01122503158493
 127    -1.0803743591632e-05
 128    0.0036787605174988
 129    0.0038875086000657
 130    0.0041036906799908
 131    9.8011155274451e-05
 132    -4.7491241473775e-06
 133    -1.1728106234231e-06
 134    -2.521929858627e-14
 135    4.1523451349204e-14
 136    1.3252933586591e-05
 137    -6.0929990582445e-05
 138    -7.6280981194466e-05
 139    0.00082822021146864
 140    3.725643489221e-06
 141    0.00028970806801011
 142    -8.5008141563937e-14
 143    5.9689533079447e-13
 144    -3.7256432728615e-06
 145    -0.00028970806952613
 146    7.6280980989907e-05
 147    -0.00082822020999804
 148    -1.3252933610829e-05
 149    6.0929990829468e-05
 Sym= A
 Ene=    -10.57408992
 Spin= Alpha