[Molden Format]
made by pyscf v[1.7.6]
[Atoms] (AU)
C   1   6     4.99395698731160    -2.55017869657281     0.00000236215766
C   2   6     3.07027068904829    -0.47273983995849     0.00000047243153
C   3   6     3.50612974578849     2.06184366500421    -0.00000017007535
C   4   6     0.36550799242419    -0.77154305131580     0.00000047243153
N   5   7     1.24898772350935     3.36664136934901    -0.00000086927402
C   6   6    -0.70730923833488     1.66392666167386    -0.00000069919867
C   7   6    -1.23950305580933    -2.87518180791428     0.00000092596580
C   8   6    -3.31378331079549     2.05519685571723    -0.00000134170555
C   9   6    -3.81623898067919    -2.50104290715589    -0.00000005669178
C   10   6    -4.84436212879082    -0.05200567868778    -0.00000117163020
H   11   1     4.07306761425493    -4.39046100636264    -0.00001778232283
H   12   1     6.20560236199674    -2.47247884640633     1.66466943742438
H   13   1     6.20562972523103    -2.47245616969283    -1.66464366156004
H   14   1     5.27484387535726     3.07150245033080    -0.00000092596580
H   15   1     1.07127691499493     5.25116148741351    -0.00000255113027
H   16   1    -0.47038677188544    -4.77078174929506     0.00000194641791
H   17   1    -4.10729025201462     3.94024660732266    -0.00000205980148
H   18   1    -5.07605808521124    -4.11038915719451    -0.00000022676713
H   19   1    -6.87506779378299     0.18090306616487    -0.00000154957542
[GTO]
1 0
 s    6 1.00
             3047.5249  0.0018347001629433
             457.36951    0.01403730124668
             103.94869   0.068842606114048
             29.210155    0.23218442062076
              9.286663    0.46794134155879
              3.163927    0.36231203217765
 s    3 1.00
             7.8682724   -0.11933240861517
             1.8812885   -0.16085421161283
             0.5442493     1.1434564825515
 s    1 1.00
             0.1687144                   1
 s    1 1.00
                0.0438                   1
 p    3 1.00
             7.8682724   0.068999095584993
             1.8812885    0.31642397975315
             0.5442493    0.74430825237435
 p    1 1.00
             0.1687144                   1
 p    1 1.00
                0.0438                   1
 d    1 1.00
                   0.8                   1

2 0
 s    6 1.00
             3047.5249  0.0018347001629433
             457.36951    0.01403730124668
             103.94869   0.068842606114048
             29.210155    0.23218442062076
              9.286663    0.46794134155879
              3.163927    0.36231203217765
 s    3 1.00
             7.8682724   -0.11933240861517
             1.8812885   -0.16085421161283
             0.5442493     1.1434564825515
 s    1 1.00
             0.1687144                   1
 s    1 1.00
                0.0438                   1
 p    3 1.00
             7.8682724   0.068999095584993
             1.8812885    0.31642397975315
             0.5442493    0.74430825237435
 p    1 1.00
             0.1687144                   1
 p    1 1.00
                0.0438                   1
 d    1 1.00
                   0.8                   1

3 0
 s    6 1.00
             3047.5249  0.0018347001629433
             457.36951    0.01403730124668
             103.94869   0.068842606114048
             29.210155    0.23218442062076
              9.286663    0.46794134155879
              3.163927    0.36231203217765
 s    3 1.00
             7.8682724   -0.11933240861517
             1.8812885   -0.16085421161283
             0.5442493     1.1434564825515
 s    1 1.00
             0.1687144                   1
 s    1 1.00
                0.0438                   1
 p    3 1.00
             7.8682724   0.068999095584993
             1.8812885    0.31642397975315
             0.5442493    0.74430825237435
 p    1 1.00
             0.1687144                   1
 p    1 1.00
                0.0438                   1
 d    1 1.00
                   0.8                   1

4 0
 s    6 1.00
             3047.5249  0.0018347001629433
             457.36951    0.01403730124668
             103.94869   0.068842606114048
             29.210155    0.23218442062076
              9.286663    0.46794134155879
              3.163927    0.36231203217765
 s    3 1.00
             7.8682724   -0.11933240861517
             1.8812885   -0.16085421161283
             0.5442493     1.1434564825515
 s    1 1.00
             0.1687144                   1
 s    1 1.00
                0.0438                   1
 p    3 1.00
             7.8682724   0.068999095584993
             1.8812885    0.31642397975315
             0.5442493    0.74430825237435
 p    1 1.00
             0.1687144                   1
 p    1 1.00
                0.0438                   1
 d    1 1.00
                   0.8                   1

5 0
 s    6 1.00
              4173.511  0.0018347994430301
              627.4579   0.013994995751693
              142.9021   0.068586979179805
              40.23433    0.23224092950117
              12.82021    0.46906985760962
              4.390437    0.36045489058067
 s    3 1.00
             11.626358   -0.11496102288211
               2.71628   -0.16911803366165
              0.772218     1.1458522280731
 s    1 1.00
             0.2120313                   1
 s    1 1.00
                0.0639                   1
 p    3 1.00
             11.626358   0.067580023248036
               2.71628    0.32390711142648
              0.772218    0.74089525487354
 p    1 1.00
             0.2120313                   1
 p    1 1.00
                0.0639                   1
 d    1 1.00
                   0.8                   1

6 0
 s    6 1.00
             3047.5249  0.0018347001629433
             457.36951    0.01403730124668
             103.94869   0.068842606114048
             29.210155    0.23218442062076
              9.286663    0.46794134155879
              3.163927    0.36231203217765
 s    3 1.00
             7.8682724   -0.11933240861517
             1.8812885   -0.16085421161283
             0.5442493     1.1434564825515
 s    1 1.00
             0.1687144                   1
 s    1 1.00
                0.0438                   1
 p    3 1.00
             7.8682724   0.068999095584993
             1.8812885    0.31642397975315
             0.5442493    0.74430825237435
 p    1 1.00
             0.1687144                   1
 p    1 1.00
                0.0438                   1
 d    1 1.00
                   0.8                   1

7 0
 s    6 1.00
             3047.5249  0.0018347001629433
             457.36951    0.01403730124668
             103.94869   0.068842606114048
             29.210155    0.23218442062076
              9.286663    0.46794134155879
              3.163927    0.36231203217765
 s    3 1.00
             7.8682724   -0.11933240861517
             1.8812885   -0.16085421161283
             0.5442493     1.1434564825515
 s    1 1.00
             0.1687144                   1
 s    1 1.00
                0.0438                   1
 p    3 1.00
             7.8682724   0.068999095584993
             1.8812885    0.31642397975315
             0.5442493    0.74430825237435
 p    1 1.00
             0.1687144                   1
 p    1 1.00
                0.0438                   1
 d    1 1.00
                   0.8                   1

8 0
 s    6 1.00
             3047.5249  0.0018347001629433
             457.36951    0.01403730124668
             103.94869   0.068842606114048
             29.210155    0.23218442062076
              9.286663    0.46794134155879
              3.163927    0.36231203217765
 s    3 1.00
             7.8682724   -0.11933240861517
             1.8812885   -0.16085421161283
             0.5442493     1.1434564825515
 s    1 1.00
             0.1687144                   1
 s    1 1.00
                0.0438                   1
 p    3 1.00
             7.8682724   0.068999095584993
             1.8812885    0.31642397975315
             0.5442493    0.74430825237435
 p    1 1.00
             0.1687144                   1
 p    1 1.00
                0.0438                   1
 d    1 1.00
                   0.8                   1

9 0
 s    6 1.00
             3047.5249  0.0018347001629433
             457.36951    0.01403730124668
             103.94869   0.068842606114048
             29.210155    0.23218442062076
              9.286663    0.46794134155879
              3.163927    0.36231203217765
 s    3 1.00
             7.8682724   -0.11933240861517
             1.8812885   -0.16085421161283
             0.5442493     1.1434564825515
 s    1 1.00
             0.1687144                   1
 s    1 1.00
                0.0438                   1
 p    3 1.00
             7.8682724   0.068999095584993
             1.8812885    0.31642397975315
             0.5442493    0.74430825237435
 p    1 1.00
             0.1687144                   1
 p    1 1.00
                0.0438                   1
 d    1 1.00
                   0.8                   1

10 0
 s    6 1.00
             3047.5249  0.0018347001629433
             457.36951    0.01403730124668
             103.94869   0.068842606114048
             29.210155    0.23218442062076
              9.286663    0.46794134155879
              3.163927    0.36231203217765
 s    3 1.00
             7.8682724   -0.11933240861517
             1.8812885   -0.16085421161283
             0.5442493     1.1434564825515
 s    1 1.00
             0.1687144                   1
 s    1 1.00
                0.0438                   1
 p    3 1.00
             7.8682724   0.068999095584993
             1.8812885    0.31642397975315
             0.5442493    0.74430825237435
 p    1 1.00
             0.1687144                   1
 p    1 1.00
                0.0438                   1
 d    1 1.00
                   0.8                   1

11 0
 s    3 1.00
             18.731137    0.03349459952309
             2.8253937    0.23472694665786
             0.6401217    0.81375731841339
 s    1 1.00
             0.1612778                   1

12 0
 s    3 1.00
             18.731137    0.03349459952309
             2.8253937    0.23472694665786
             0.6401217    0.81375731841339
 s    1 1.00
             0.1612778                   1

13 0
 s    3 1.00
             18.731137    0.03349459952309
             2.8253937    0.23472694665786
             0.6401217    0.81375731841339
 s    1 1.00
             0.1612778                   1

14 0
 s    3 1.00
             18.731137    0.03349459952309
             2.8253937    0.23472694665786
             0.6401217    0.81375731841339
 s    1 1.00
             0.1612778                   1

15 0
 s    3 1.00
             18.731137    0.03349459952309
             2.8253937    0.23472694665786
             0.6401217    0.81375731841339
 s    1 1.00
             0.1612778                   1

16 0
 s    3 1.00
             18.731137    0.03349459952309
             2.8253937    0.23472694665786
             0.6401217    0.81375731841339
 s    1 1.00
             0.1612778                   1

17 0
 s    3 1.00
             18.731137    0.03349459952309
             2.8253937    0.23472694665786
             0.6401217    0.81375731841339
 s    1 1.00
             0.1612778                   1

18 0
 s    3 1.00
             18.731137    0.03349459952309
             2.8253937    0.23472694665786
             0.6401217    0.81375731841339
 s    1 1.00
             0.1612778                   1

19 0
 s    3 1.00
             18.731137    0.03349459952309
             2.8253937    0.23472694665786
             0.6401217    0.81375731841339
 s    1 1.00
             0.1612778                   1

[6d]
[10f]
[15g]

[MO]
 Sym= A
 Ene=    -14.84129039
 Spin= Alpha
 Occup=    2.00000
   1    2.5827473818105e-06
   2    2.5990639694408e-05
   3    -0.00063436655013436
   4    -0.0010874596591395
   5    9.1040000360663e-06
   6    -2.5482955442809e-05
   7    -1.6603000585623e-10
   8    0.00034020943105679
   9    -6.981144138056e-05
  10    1.5483662355977e-09
  11    0.00020382527465935
  12    -0.00030582550713352
  13    6.3400987798516e-10
  14    -2.2882152949937e-05
  15    4.5627179086831e-06
  16    5.5953534101996e-06
  17    -5.8009543587381e-07
  18    -2.3763686167242e-10
  19    -1.9897982949995e-10
  20    5.8308795458178e-06
  21    4.7855971687494e-05
  22    -0.00078454749986097
  23     0.021096201418508
  24    -3.4243253805672e-05
  25    -4.2032544167889e-05
  26    2.7142177128978e-11
  27    0.00035369874250392
  28    -0.0013762428822096
  29    2.3516345302865e-10
  30    -0.0023777852166713
  31    0.0024266063613383
  32    -8.4173435542447e-10
  33    9.4225124118714e-06
  34    -6.4913077757863e-05
  35    -4.2832937964064e-06
  36    6.2686973557362e-06
  37    -3.1805682207015e-11
  38    2.6261680230269e-11
  39    3.4876781718456e-06
  40    7.8983773906413e-05
  41    0.0024897780823878
  42    -0.0086433552200811
  43    -0.00026151593839138
  44    0.00015540821181573
  45    -1.0466510631985e-10
  46    -0.0014921648468599
  47    -0.00084644750783574
  48    2.2427053964371e-10
  49    0.0010595531345132
  50    0.00096835453082193
  51    -2.7683858449642e-11
  52    1.5875605685447e-05
  53    -5.3906341769554e-06
  54    -8.8777361962185e-05
  55    -1.238396070841e-05
  56    3.0017425339207e-11
  57    -1.7878773217137e-11
  58    -1.6747876385015e-05
  59    -8.6294910930481e-05
  60    0.00092073079004695
  61    -0.014484120132776
  62    4.5314150641754e-05
  63    -5.2725295848171e-05
  64    2.2571299734378e-11
  65    -0.0010670157874466
  66    -0.00029603549643352
  67    -1.8294637075394e-12
  68    -0.0095066339026542
  69    -0.014125070281715
  70    5.4702604036631e-09
  71    2.716929417763e-05
  72    -5.7751976248792e-05
  73    -4.6493620916709e-05
  74    -1.855977126307e-06
  75    3.3462182726217e-11
  76    -5.2005367291922e-12
  77      0.99373540717019
  78     0.030908973590089
  79    -0.0022140965604249
  80    -0.00087835146663448
  81    -1.3220664238689e-05
  82    -0.00010808580214691
  83    -5.6709126133758e-10
  84    0.00044520125973487
  85    0.0019179597784046
  86    -2.9674333932504e-10
  87    -0.00023372192881685
  88    0.00044102988571033
  89    -1.6883809631602e-10
  90    -0.0061122093165603
  91    -0.0059999739095512
  92    -0.0059676774786812
  93    -3.7084896919443e-05
  94    -2.6089521005251e-11
  95    -8.2029417237567e-11
  96    3.095380747269e-05
  97    0.00020036289720284
  98    0.00081483874694764
  99    0.0036922597705381
 100    0.00016602176114863
 101    0.00017708012821369
 102    -2.2256775760798e-11
 103    0.0029818013077007
 104    0.0016173281100175
 105    -6.0219852475046e-11
 106     0.013462340332249
 107    -0.0054614366405729
 108     3.75973954257e-09
 109    2.2198742545494e-05
 110    2.8724823933739e-05
 111    -4.7899432490078e-05
 112    5.0457521886092e-05
 113    -4.3103546855055e-13
 114    -8.9919674135739e-12
 115    -7.9526677830888e-07
 116    5.6069100655987e-06
 117    -0.00088382853983378
 118    -0.016405756722814
 119    8.9032420324373e-06
 120    -3.8188984278992e-05
 121    3.6297572643599e-11
 122    -0.00017290596741032
 123    -0.00032386165168576
 124    -4.2724696829536e-11
 125    -0.0040892318523384
 126    -0.0034464800925671
 127    -2.4012098281768e-10
 128    4.6651578059177e-06
 129    -1.3796759773102e-05
 130    -9.6437754338724e-06
 131    -3.4197335445887e-06
 132    7.5915303872249e-12
 133    -9.7572987368326e-12
 134    -1.7026546721376e-05
 135    -7.6433600700681e-05
 136    0.0022443708892742
 137     0.016405010184044
 138    3.4129096789731e-05
 139    2.5741896337314e-05
 140    3.5779145939101e-12
 141    0.00049448285176551
 142    -0.0014872903486651
 143    5.6739837542347e-10
 144    0.0057626523691462
 145    0.00059215927175351
 146    1.2983461033134e-09
 147    -3.3376973943846e-05
 148    1.5868289830455e-05
 149    -3.9183475992111e-05
 150    -4.9906695366495e-05
 151    2.5911615909269e-11
 152    -2.4554310846555e-11
 153    -6.3632702016638e-06
 154    -2.8909810041744e-05
 155    0.00030747771293785
 156    0.0023504769954606
 157    -1.7228176346244e-05
 158    -1.3223751474581e-05
 159    -9.4609079867568e-13
 160    0.00018533988704503
 161    0.00033163123538953
 162    7.5335543083005e-12
 163    -0.0019481243018335
 164    0.0021276994825817
 165    -1.4655172601095e-09
 166    -6.1221448213365e-06
 167    -9.824702725067e-07
 168    -1.5531141747119e-05
 169    -2.9685169475114e-06
 170    2.6892228337115e-12
 171    -1.1136629253626e-11
 172    6.1468788668025e-07
 173    1.495041367192e-05
 174    -0.0012418117235976
 175    -0.0026587500017873
 176    -3.9607785016999e-05
 177    -2.1132611761572e-05
 178    5.2038385489352e-12
 179    -0.00045713371408041
 180    -0.00021004073179149
 181    -1.4391822955299e-10
 182    -0.00041782315583777
 183    0.0031118878777326
 184    -1.0467433570414e-09
 185    -7.3394191221008e-06
 186    2.2458049156563e-06
 187    -1.1995677836105e-05
 188    -1.0855365200674e-05
 189    -8.1928895424122e-12
 190    -5.5534143823723e-12
 191    2.4403339481687e-05
 192    7.4829450084853e-05
 193    6.5379258935339e-06
 194    -6.7227985400922e-05
 195    6.5375148833716e-06
 196    -6.7226954475995e-05
 197    5.1836846135716e-06
 198    0.00063391147348228
 199    0.00016420382515753
 200    -0.00059390516907558
 201    1.5078010195287e-05
 202    5.9817894662747e-06
 203    4.9450135123508e-05
 204    0.00052946007035099
 205    1.4469506672394e-05
 206    0.00016094129478846
 207    5.0322892581599e-06
 208    -1.1251879136849e-05
 Sym= A
 Ene=    -10.60555477
 Spin= Alpha
 Occup=    2.00000
   1    -1.0970611346669e-05
   2    -4.0889860744569e-06
   3    -0.0003369909184509
   4      -0.1156399923713
   5    3.9474418861931e-05
   6    -1.712137861812e-05
   7    -1.2321876782248e-09
   8    0.00042925129342383
   9    8.2098500583866e-05
  10    9.9501199822523e-09
  11     0.014385866320141
  12    -0.014872313178578
  13    2.7164454874196e-08
  14    -6.1900858990848e-05
  15    -2.2375451839236e-05
  16    -3.0280507263289e-05
  17    3.5728966327004e-05
  18    9.0227186761765e-11
  19    -1.247132081252e-10
  20    -2.9364000236662e-05
  21    -0.00013467663633936
  22    0.00017924443597016
  23     -0.23189277818683
  24    -8.4192290211681e-05
  25    2.4302748833122e-05
  26     2.60159429551e-10
  27    -0.0010124022380926
  28    -0.0018907942262737
  29    -2.2981772137645e-09
  30     0.092798641207775
  31     -0.11741624915879
  32    5.4515139852799e-08
  33    0.00020598809891825
  34    6.8034396975095e-05
  35    -6.2270968742525e-06
  36    -7.4918327462234e-05
  37    -2.2569452252888e-10
  38    1.248236263343e-10
  39    -0.0027250034670588
  40    -0.00035829973323706
  41    0.0017084856285118
  42      0.17025222880026
  43    -0.00010454760084547
  44    -1.3479299227486e-06
  45    2.4125636371794e-10
  46    -0.00050788007344096
  47    -0.0015171773494842
  48    1.812188225368e-10
  49    -0.024064301000452
  50    -0.017232748464617
  51    -4.0797508805213e-09
  52    0.00022071757341723
  53    4.8525553345107e-05
  54    -3.4912247532522e-05
  55    6.6936799647082e-05
  56    -9.1263171835676e-12
  57    -8.1818045713189e-11
  58     0.010046254627432
  59    0.00038564050264109
  60    0.0050122787859717
  61      0.20485681574787
  62    0.0001574272327112
  63    -0.00015171679178504
  64    9.6099342551326e-11
  65    -0.0048444714396214
  66    0.0023338078645343
  67    -1.0717940724237e-09
  68     0.089254678042165
  69      0.19950462644156
  70    -6.6430586368307e-08
  71    -0.00013951349947223
  72    -0.00039735395451148
  73    -5.517997480396e-05
  74    4.1393131890663e-05
  75    9.2914700156485e-11
  76    1.8266622787924e-10
  77    -7.3843936987077e-05
  78    0.00057983534372963
  79    -0.0023021747878702
  80     0.011848230626401
  81    3.9867277655119e-05
  82    8.8293917450418e-05
  83    5.7175834136147e-11
  84    0.0011520950207777
  85    0.0013768843831035
  86    -6.0218301269454e-10
  87    -0.0053402365314872
  88    -0.0056685136295268
  89    3.0746391246243e-09
  90    -0.00023803765340592
  91    -0.00024577893650373
  92    0.00034643776182448
  93    -0.00049052331836882
  94    1.1227441483457e-11
  95    7.1446128949918e-11
  96      0.99424047641899
  97     0.040768161452377
  98    -0.022301463818371
  99     -0.17961160534519
 100    0.00064670298983216
 101    0.00057842173430067
 102    1.2277398606414e-10
 103    0.0024698870622428
 104    0.0038998425264831
 105    -1.5846280290959e-09
 106    -0.091175721253685
 107     0.048954420669378
 108    -4.7166395775677e-08
 109    -0.0045746610864032
 110    -0.0051213641532989
 111    -0.0056395107395492
 112    0.00016445940014919
 113    2.2551163128415e-10
 114    -1.3410589405914e-10
 115    0.00011232505762603
 116    1.2362133034421e-05
 117    -0.0033630270044802
 118      0.21799292523318
 119    -5.2647685181372e-05
 120    3.6060051377539e-07
 121    1.3352505883295e-11
 122    0.0019785610273337
 123    -0.0023999819859383
 124    1.1850003725365e-09
 125     0.050166665242972
 126     0.039678543844199
 127    6.2461163152725e-10
 128    2.7015565675875e-05
 129    8.2201185792069e-05
 130    -6.8766175843348e-06
 131    2.5981172249112e-05
 132    -5.3012283614796e-12
 133    -6.337354505688e-11
 134     0.012851525868493
 135    0.00028700215811453
 136    0.0069166282362034
 137    -0.077004911357753
 138    -0.00023629077968626
 139    0.00012348782546291
 140    -1.2042832970696e-10
 141    0.0019897183855843
 142    -0.0033750182135866
 143    1.7292815970942e-09
 144    -0.032306182173813
 145    -0.0065418799706409
 146    8.778727601143e-10
 147    -0.00060757183493006
 148    -0.00012493397199787
 149    -0.00014037340270926
 150    6.2527694651188e-05
 151    -6.8012116328167e-11
 152    1.6725169281747e-11
 153    -0.00020541628952847
 154    -0.00030063913636397
 155    0.0042343562052307
 156    -0.017611472545969
 157    9.4433822556966e-07
 158    -5.4477670420101e-05
 159    -8.6801794660489e-12
 160    0.0016075279367508
 161    0.0016990563756701
 162    2.3204089172957e-10
 163     0.014231307760615
 164    -0.019692580433729
 165    1.2052851374017e-08
 166    3.8827620535315e-06
 167    -3.717929045838e-06
 168    -0.00012047106803934
 169    -7.9805325569613e-06
 170    5.9919626316177e-11
 171    -4.385723163907e-11
 172    0.00017871571981989
 173    6.3233249079809e-05
 174    -0.0042629876009202
 175     0.022960690166146
 176    -2.7831341691282e-05
 177    -2.6464196194067e-05
 178    -2.7001067797179e-11
 179    -0.0021885187366356
 180    8.3138130425172e-06
 181    -6.6988766173661e-10
 182    0.0028857459223996
 183    -0.021374726190634
 184    5.1002948965324e-09
 185    0.00013086046494894
 186    2.4117275880601e-05
 187    2.2773206410457e-05
 188    1.3007018896944e-05
 189    -9.6348190233289e-13
 190    4.8220921172211e-12
 191    -3.4215943143781e-05
 192    0.00022581297857793
 193    3.2255342781856e-05
 194    -0.0005272660102069
 195    3.2256058310734e-05
 196    -0.00052725680858198
 197    -8.2253045664769e-06
 198    0.00063046776137145
 199    -6.0426727835622e-05
 200    -0.00048111019989282
 201    -0.00011824142255489
 202    -0.00091759306238575
 203    6.4889293140253e-05
 204    0.00080594517952201
 205    2.4104068797957e-05
 206    0.00068357380002001
 207    -5.1239976142169e-05
 208    -0.00040703799805802
 Sym= A
 Ene=    -10.60282024
 Spin= Alpha
 Occup=    2.00000
   1    -8.4197818555159e-05
   2    -0.00022703367301094
   3    0.0022264469416483
   4     0.092387245562695
   5    -2.0099834990161e-05
   6    1.1557289014946e-05
   7    -3.0359288253364e-10
   8    -0.00075037252851246
   9    0.00028565551187585
  10    8.8244702130658e-10
  11    -0.012072608271438
  12     0.012665913947597
  13    -1.5304417567971e-08
  14    1.2816329756027e-05
  15    -1.1893882969661e-05
  16    -9.0594041946376e-05
  17    -2.6513615395356e-05
  18    1.7333338606329e-10
  19    4.3397120879608e-11
  20     0.014848729942237
  21    0.00065879640695836
  22    0.0034883260238977
  23      0.15041111612098
  24    1.829814806117e-07
  25    -0.0002185828304868
  26    2.2575789865774e-11
  27    -0.0010146724652955
  28    0.0039064288639755
  29    -1.7573996657984e-09
  30     -0.06692301560062
  31     0.080705794215693
  32    -4.3609391579459e-08
  33    -0.00012090265232692
  34    -0.00027795873967179
  35    2.3279317018334e-05
  36    5.6019181408247e-10
  37    -1.0094492058083e-10
  38    1.3206329224015e-10
  39      0.99425568457019
  40     0.040695929026892
  41    -0.021293497679065
  42     -0.10565696108715
  43    -0.0010170705794819
  44    0.00050336374126807
  45    -2.5757840024132e-10
  46     0.003044878677513
  47    0.0016513285161056
  48    3.1590457081885e-10
  49     0.012056630001958
  50     0.013650816680575
  51    -9.9132255426669e-10
  52    -0.0050420590186965
  53    -0.0050873584805071
  54    -0.0056578320717257
  55    -3.0134705503134e-05
  56    -1.2351536372651e-10
  57    -3.2222130710629e-10
  58    0.00016878717073275
  59    4.4964393701225e-05
  60    -0.0031329916364569
  61    -0.026279740798768
  62    2.7083942995044e-05
  63    3.0314271879366e-05
  64    5.4372275817034e-11
  65    -0.00028105516850294
  66    -0.0022663599574891
  67    8.6600554038402e-10
  68    -0.059254256032459
  69    -0.039624078688677
  70    1.4489289465739e-08
  71    0.00016046174432985
  72    0.00011454667451893
  73    4.9887195932119e-05
  74    0.00011448702404545
  75    -1.8511565325203e-11
  76    5.2070979026955e-11
  77    -0.00014335514136476
  78    0.00021968147100004
  79    0.0015680651363889
  80     0.013330003291265
  81    1.6875109383832e-05
  82    8.6112928828214e-05
  83    2.0320946803941e-11
  84    -0.00043795614528424
  85    -0.00014335408329129
  86    -4.2883060265831e-10
  87    0.0081581014231353
  88    -0.0071670720519182
  89    5.8142455685347e-09
  90    -0.00041156715324079
  91    -0.00013546526046576
  92    0.00015467175215916
  93    0.00033670211160045
  94    -1.9795406577797e-10
  95    1.0988956977164e-10
  96    0.0027042589249321
  97    -6.7232189999053e-05
  98    -0.00044066481759727
  99     0.064441159995465
 100    -1.6468115033388e-05
 101    5.2478509761585e-06
 102    3.0842677095249e-11
 103    0.0024456058838273
 104    -0.002116302861616
 105    1.1671716720937e-09
 106    -0.052811749498717
 107     0.043337276193517
 108    -2.3033815612706e-08
 109    0.00014823844578323
 110    5.421019688826e-05
 111    -3.8249802573121e-05
 112    -4.6308364539514e-05
 113    7.3201340329932e-11
 114    -4.6393623313681e-11
 115    3.7709922869369e-05
 116    8.8371075690818e-05
 117    -0.0013140955888133
 118    -0.092081077673115
 119    -2.8438725842138e-05
 120    -2.6623969242518e-05
 121    7.7324773118001e-11
 122    -0.00029455561955091
 123    -0.00016705268873725
 124    -2.429008860834e-10
 125    0.0083198994915775
 126    -0.0079224132193741
 127    -1.151760401701e-09
 128    -1.2885214847555e-05
 129    3.6084842894437e-06
 130    1.8332149018924e-05
 131    -3.1400663512401e-05
 132    -1.2008762427974e-11
 133    -2.2131895739637e-11
 134    -8.5435325384514e-06
 135    -0.00015395482445034
 136    0.0021159445128443
 137    -0.076889310092152
 138    -3.961194092315e-05
 139    6.4116207478539e-06
 140    4.9900160440365e-11
 141    0.0019736495157678
 142    0.00027740307344799
 143    8.9029264176885e-11
 144    -0.040739177963236
 145    -0.012978806989925
 146     -6.0582548502e-09
 147    -8.7982393618737e-06
 148    -4.3744978168815e-05
 149    -6.0091276892856e-05
 150    6.7230983082817e-06
 151    -1.8896842061284e-11
 152    3.6122666335907e-12
 153    1.341313271972e-05
 154    -1.5921497132025e-05
 155    0.00040477033328692
 156    -0.0032964679824076
 157    -5.2749315349127e-06
 158    1.302129284734e-05
 159    -9.7143762611163e-12
 160    4.3029127394579e-07
 161    0.00035476148830079
 162    -5.4967499321906e-11
 163     0.013088014279565
 164    -0.010787287461129
 165    1.1590489201872e-08
 166    2.0765519982299e-05
 167    2.4478290763584e-05
 168    -8.4335924460716e-06
 169    -6.015878366219e-06
 170    2.5964908209312e-11
 171    -3.3343548929031e-11
 172    2.0198438123437e-05
 173    1.6857007687855e-05
 174    8.9821239779468e-05
 175    -0.0095461442117988
 176    2.5636323233385e-06
 177    -2.5639644345258e-05
 178    3.3063608622822e-11
 179    -0.00032936033003232
 180    0.00080533146575344
 181    -3.5823496201811e-10
 182    -0.00081107070823347
 183     -0.02152005655642
 184    4.2622458210152e-09
 185    -4.2787996775534e-07
 186    1.588277370427e-05
 187    -2.8095683002948e-06
 188    1.7011774733755e-05
 189    -2.0829195136356e-11
 190    2.8207334757121e-11
 191    -7.8711324696947e-05
 192    -3.2915487592547e-05
 193    4.063990837705e-06
 194    -0.00034126734602848
 195    4.0634291279291e-06
 196    -0.00034126471282757
 197    -0.00016520244022784
 198    0.00046191820146128
 199    -0.00014023907244969
 200    0.00031672534081009
 201    -9.5546371501764e-06
 202    0.00016504578010773
 203    -0.00011902047575879
 204    0.00048078771706152
 205    -4.0042588005941e-05
 206    0.0003420246871393
 207    -4.8738698242509e-05
 208    -0.00012004732537296
 Sym= A
 Ene=    -10.57533303
 Spin= Alpha
 Occup=    2.00000
   1    -4.9147301619336e-07
   2    -1.2239185331894e-05
   3    0.00057847829871552
   4    -0.0065214751370846
   5    -3.2421921734711e-05
   6    2.9612796284764e-05
   7    -3.7643031443698e-11
   8    -5.9343390312272e-05
   9    5.1276883358616e-05
  10    -2.3466619526265e-10
  11    0.00097359994403925
  12    -0.0006451260648518
  13    1.6189349056247e-09
  14    1.5948965081212e-06
  15    3.4065563037834e-06
  16    6.1294762306554e-06