[Molden Format]
made by pyscf v[1.7.6]
[Atoms] (AU)
C   1   6     5.54738439113129     0.09481368238207     0.00000153067816
C   2   6     2.70255921927107     0.06046936515722     0.00000003779452
C   3   6     1.30460570817054     2.27918100989866    -0.00000032125344
C   4   6     1.38056001831576    -2.21859809109861    -0.00000035904796
C   5   6    -1.32085523634854     2.24512413891461    -0.00000060471236
C   6   6    -1.23188725165746    -2.28984719106354    -0.00000058581510
C   7   6    -2.59138678254100    -0.04425283159735    -0.00000032125344
O   8   8    -5.17108780108387    -0.20874661213765     0.00000009448631
H   9   1     6.26461418139408     2.02331330205727     0.00000096376032
H   10   1     6.30606349090208    -0.86077174262302    -1.66120209234199
H   11   1     6.30606156338143    -0.86076992848594     1.66120711901348
H   12   1     2.27493963299564     4.08124109548342    -0.00000013228083
H   13   1     2.42187337918781    -3.98171636366733    -0.00000047243153
H   14   1    -2.37298608875627     4.00283885301370    -0.00000079368497
H   15   1    -2.24572221833577    -4.06375234160471    -0.00000068030140
H   16   1    -5.87885059258591     1.46119130613298     0.00000221097957
[GTO]
1 0
 s    6 1.00
             3047.5249  0.0018347001629433
             457.36951    0.01403730124668
             103.94869   0.068842606114048
             29.210155    0.23218442062076
              9.286663    0.46794134155879
              3.163927    0.36231203217765
 s    3 1.00
             7.8682724   -0.11933240861517
             1.8812885   -0.16085421161283
             0.5442493     1.1434564825515
 s    1 1.00
             0.1687144                   1
 s    1 1.00
                0.0438                   1
 p    3 1.00
             7.8682724   0.068999095584993
             1.8812885    0.31642397975315
             0.5442493    0.74430825237435
 p    1 1.00
             0.1687144                   1
 p    1 1.00
                0.0438                   1
 d    1 1.00
                   0.8                   1

2 0
 s    6 1.00
             3047.5249  0.0018347001629433
             457.36951    0.01403730124668
             103.94869   0.068842606114048
             29.210155    0.23218442062076
              9.286663    0.46794134155879
              3.163927    0.36231203217765
 s    3 1.00
             7.8682724   -0.11933240861517
             1.8812885   -0.16085421161283
             0.5442493     1.1434564825515
 s    1 1.00
             0.1687144                   1
 s    1 1.00
                0.0438                   1
 p    3 1.00
             7.8682724   0.068999095584993
             1.8812885    0.31642397975315
             0.5442493    0.74430825237435
 p    1 1.00
             0.1687144                   1
 p    1 1.00
                0.0438                   1
 d    1 1.00
                   0.8                   1

3 0
 s    6 1.00
             3047.5249  0.0018347001629433
             457.36951    0.01403730124668
             103.94869   0.068842606114048
             29.210155    0.23218442062076
              9.286663    0.46794134155879
              3.163927    0.36231203217765
 s    3 1.00
             7.8682724   -0.11933240861517
             1.8812885   -0.16085421161283
             0.5442493     1.1434564825515
 s    1 1.00
             0.1687144                   1
 s    1 1.00
                0.0438                   1
 p    3 1.00
             7.8682724   0.068999095584993
             1.8812885    0.31642397975315
             0.5442493    0.74430825237435
 p    1 1.00
             0.1687144                   1
 p    1 1.00
                0.0438                   1
 d    1 1.00
                   0.8                   1

4 0
 s    6 1.00
             3047.5249  0.0018347001629433
             457.36951    0.01403730124668
             103.94869   0.068842606114048
             29.210155    0.23218442062076
              9.286663    0.46794134155879
              3.163927    0.36231203217765
 s    3 1.00
             7.8682724   -0.11933240861517
             1.8812885   -0.16085421161283
             0.5442493     1.1434564825515
 s    1 1.00
             0.1687144                   1
 s    1 1.00
                0.0438                   1
 p    3 1.00
             7.8682724   0.068999095584993
             1.8812885    0.31642397975315
             0.5442493    0.74430825237435
 p    1 1.00
             0.1687144                   1
 p    1 1.00
                0.0438                   1
 d    1 1.00
                   0.8                   1

5 0
 s    6 1.00
             3047.5249  0.0018347001629433
             457.36951    0.01403730124668
             103.94869   0.068842606114048
             29.210155    0.23218442062076
              9.286663    0.46794134155879
              3.163927    0.36231203217765
 s    3 1.00
             7.8682724   -0.11933240861517
             1.8812885   -0.16085421161283
             0.5442493     1.1434564825515
 s    1 1.00
             0.1687144                   1
 s    1 1.00
                0.0438                   1
 p    3 1.00
             7.8682724   0.068999095584993
             1.8812885    0.31642397975315
             0.5442493    0.74430825237435
 p    1 1.00
             0.1687144                   1
 p    1 1.00
                0.0438                   1
 d    1 1.00
                   0.8                   1

6 0
 s    6 1.00
             3047.5249  0.0018347001629433
             457.36951    0.01403730124668
             103.94869   0.068842606114048
             29.210155    0.23218442062076
              9.286663    0.46794134155879
              3.163927    0.36231203217765
 s    3 1.00
             7.8682724   -0.11933240861517
             1.8812885   -0.16085421161283
             0.5442493     1.1434564825515
 s    1 1.00
             0.1687144                   1
 s    1 1.00
                0.0438                   1
 p    3 1.00
             7.8682724   0.068999095584993
             1.8812885    0.31642397975315
             0.5442493    0.74430825237435
 p    1 1.00
             0.1687144                   1
 p    1 1.00
                0.0438                   1
 d    1 1.00
                   0.8                   1

7 0
 s    6 1.00
             3047.5249  0.0018347001629433
             457.36951    0.01403730124668
             103.94869   0.068842606114048
             29.210155    0.23218442062076
              9.286663    0.46794134155879
              3.163927    0.36231203217765
 s    3 1.00
             7.8682724   -0.11933240861517
             1.8812885   -0.16085421161283
             0.5442493     1.1434564825515
 s    1 1.00
             0.1687144                   1
 s    1 1.00
                0.0438                   1
 p    3 1.00
             7.8682724   0.068999095584993
             1.8812885    0.31642397975315
             0.5442493    0.74430825237435
 p    1 1.00
             0.1687144                   1
 p    1 1.00
                0.0438                   1
 d    1 1.00
                   0.8                   1

8 0
 s    6 1.00
             5484.6717   0.001831099805527
             825.23495   0.013950098518422
             188.04696    0.06844509273075
               52.9645    0.23271427528445
              16.89757    0.47019295006289
             5.7996353    0.35852086192309
 s    3 1.00
             15.539616   -0.11077750382508
             3.5999336   -0.14802630511126
             1.0137618     1.1307670390447
 s    1 1.00
             0.2700058                   1
 s    1 1.00
                0.0845                   1
 p    3 1.00
             15.539616   0.070874299543311
             3.5999336    0.33975279781076
             1.0137618    0.72715859531445
 p    1 1.00
             0.2700058                   1
 p    1 1.00
                0.0845                   1
 d    1 1.00
                   0.8                   1

9 0
 s    3 1.00
             18.731137    0.03349459952309
             2.8253937    0.23472694665786
             0.6401217    0.81375731841339
 s    1 1.00
             0.1612778                   1

10 0
 s    3 1.00
             18.731137    0.03349459952309
             2.8253937    0.23472694665786
             0.6401217    0.81375731841339
 s    1 1.00
             0.1612778                   1

11 0
 s    3 1.00
             18.731137    0.03349459952309
             2.8253937    0.23472694665786
             0.6401217    0.81375731841339
 s    1 1.00
             0.1612778                   1

12 0
 s    3 1.00
             18.731137    0.03349459952309
             2.8253937    0.23472694665786
             0.6401217    0.81375731841339
 s    1 1.00
             0.1612778                   1

13 0
 s    3 1.00
             18.731137    0.03349459952309
             2.8253937    0.23472694665786
             0.6401217    0.81375731841339
 s    1 1.00
             0.1612778                   1

14 0
 s    3 1.00
             18.731137    0.03349459952309
             2.8253937    0.23472694665786
             0.6401217    0.81375731841339
 s    1 1.00
             0.1612778                   1

15 0
 s    3 1.00
             18.731137    0.03349459952309
             2.8253937    0.23472694665786
             0.6401217    0.81375731841339
 s    1 1.00
             0.1612778                   1

16 0
 s    3 1.00
             18.731137    0.03349459952309
             2.8253937    0.23472694665786
             0.6401217    0.81375731841339
 s    1 1.00
             0.1612778                   1

[6d]
[10f]
[15g]

[MO]
 Sym= A
 Ene=    -19.71520319
 Spin= Alpha
 Occup=    2.00000
   1    1.0009259299042e-07
   2    -7.4643600273298e-07
   3    0.00010391932263078
   4    0.0026602412281121
   5    -1.9751687855178e-06
   6    2.6355852163046e-06
   7    1.225596587151e-12
   8    -5.2109725844235e-05
   9    3.1603700418063e-05
  10    -3.2054518869944e-11
  11    -0.00054367260559417
  12    2.6426111201282e-05
  13    -5.1066800440788e-10
  14    7.3653008424422e-07
  15    2.2799246028736e-06
  16    -6.3624691218155e-07
  17    -6.3175823282063e-06
  18    3.4465085772296e-12
  19    -5.6734963074999e-12
  20    -1.4112832802689e-06
  21    -8.1677790063455e-06
  22    0.00039788538670818
  23    0.0063026709381533
  24    1.9710038669574e-07
  25    -6.0033726748026e-06
  26    6.6342626320378e-12
  27    -0.00031900171982228
  28    -0.0002706273232667
  29    -1.5337698030449e-10
  30    -0.0029660563204322
  31    -0.00057564752766759
  32    -3.4300292058877e-10
  33    4.0570710045942e-06
  34    -7.7048912573579e-06
  35    1.2183372266997e-06
  36    9.3910604780439e-06
  37    2.1549961538768e-12
  38    -9.0177554387842e-13
  39    2.6662599821462e-06
  40    8.3286932347938e-06
  41    -0.0005091564200196
  42    -0.0028614217576889
  43    -1.4079535953237e-05
  44    1.0327462465338e-05
  45    -1.5292396770496e-11
  46    0.00034120434851588
  47    2.0801884351626e-05
  48    1.5734320239896e-10
  49    -0.00036001089459315
  50    0.0015208771609802
  51    -7.4058004530347e-10
  52    2.6996099083223e-05
  53    1.7735906869828e-06
  54    1.2991517483317e-06
  55    -1.36099867363e-05
  56    -4.2706071929036e-13
  57    -9.7063231580597e-12
  58    9.0586089392921e-06
  59    4.1870039996408e-05
  60    -0.00071358683134615
  61    -0.0071178790116526
  62    -5.943197272418e-06
  63    8.3921729143961e-06
  64    -1.3339975234676e-11
  65    0.00011411239515652
  66    -0.00059197764210178
  67    2.0048711039639e-11
  68    -5.1538406189461e-05
  69    -0.0013539294546771
  70    -3.2841990066319e-10
  71    2.4969576884874e-05
  72    2.3562699749227e-06
  73    1.4104046501387e-05
  74    1.7289805322734e-05
  75    1.3272362061759e-12
  76    8.3887295413444e-12
  77    -3.4285269545564e-06
  78    6.0459891574406e-05
  79    -5.2878847180138e-05
  80     0.014842027333711
  81    1.2718502854831e-05
  82    1.8126155396696e-05
  83    -3.6397043034762e-12
  84    0.00071278709677681
  85    -4.2386916343999e-05
  86    -1.2811297143495e-10
  87    -0.0023343511441035
  88    -0.0034641235623117
  89    1.3165423412268e-09
  90    -0.0001020149197469
  91    -1.9914082900488e-05
  92    -1.2427586528499e-05
  93    -4.484367979403e-05
  94    2.2387743997885e-11
  95    2.2190854064116e-11
  96    -2.0452236207104e-05
  97    -2.5866573198324e-05
  98    0.0015653444207659
  99    -0.003971020382378
 100    -7.4887063962416e-06
 101    -2.2036148027045e-05
 102    1.8538636724991e-13
 103    -8.1962101203486e-05
 104    0.0010812185034263
 105     3.33227971192e-11
 106    0.0025900507432455
 107    6.0788545222579e-06
 108    1.7497142056302e-10
 109    -0.00010972134274164
 110    -1.8998212864937e-05
 111    -3.8516688191482e-05
 112    2.2066748648247e-05
 113    2.4884722384486e-11
 114    -5.6817746999931e-12
 115    -3.1113249254526e-05
 116    0.0001890857160819
 117    -0.00024757998932873
 118    -0.0082620382264807
 119    -0.0003938575202215
 120    -3.6613333959023e-05
 121    6.6901457141578e-11
 122    -0.00085586248938163
 123    0.0011761901723088
 124    3.0468151229741e-10
 125    -0.0034532066323599
 126    -0.0076814254938691
 127    -5.4544739228555e-10
 128    0.00015735136715815
 129    -7.6534893751744e-05
 130    -0.00011000523075995
 131    1.338000734199e-05
 132    -8.2698204300991e-11
 133    7.7731018321702e-13
 134      0.99348288417843
 135     0.023642151965907
 136    0.0096825960631632
 137    -0.0041873054429322
 138    0.00068228653897833
 139    0.0011454939629395
 140    1.0176464342565e-09
 141    -0.00075269824470786
 142    -0.0011089931494563
 143    -7.1983232634735e-10
 144    3.5691561202609e-05
 145    0.0012284794783731
 146    8.0248527563736e-10
 147    -0.0067838396762568
 148    -0.0066204138421056
 149    -0.0064920346795418
 150    -1.1261022533042e-05
 151    1.0734988032835e-10
 152    -1.685986755457e-10
 153    -5.1131252938107e-06
 154    7.1261835579856e-06
 155    1.5531303401728e-06
 156    -1.1631304444815e-05
 157    1.5531384446286e-06
 158    -1.1631363840655e-05
 159    4.2489098477901e-06
 160    -2.2014481701571e-05
 161    -2.2202595704078e-05
 162    -0.00014397326212361
 163    3.7573711500937e-05
 164    0.00017617363991483
 165    4.4982269441834e-06
 166    0.00053266253045279
 167    0.00042261449510424
 168    -0.00045220188403065
 Sym= A
 Ene=    -10.64015252
 Spin= Alpha
 Occup=    2.00000
   1    -3.3595977790312e-05
   2    -0.00012767760248709
   3    0.0019291901548658
   4     0.027171360602347
   5    -1.1563312162253e-05
   6    -1.1888071497337e-05
   7    7.0953400953295e-11
   8    -0.00089854390969989
   9    0.00011039350385523
  10    -1.0611353816472e-09
  11    -0.0060893294521015
  12    -9.7530429992905e-05
  13    -4.4928247737743e-09
  14    1.2641036886743e-05
  15    -3.6522597059826e-05
  16    -3.9675511638997e-05
  17    -9.5194069698317e-07
  18    5.5636611441452e-11
  19    3.0121970306559e-11
  20    -0.00013990400173723
  21    -0.00020516557411889
  22    0.0034371327807863
  23    -0.010376429049647
  24    7.5256891297672e-05
  25    9.2868633290777e-06
  26    6.0394351204827e-12
  27    -0.0034925837905465
  28    -0.00019189703185571
  29    -1.1759170457503e-09
  30    -0.018168687323925
  31     0.002168128849246
  32    -5.8135616380462e-09
  33    -2.8230193988947e-05
  34    2.3561265807312e-05
  35    -7.9151063200664e-05
  36    7.2008362674813e-07
  37    -5.1738075663898e-12
  38    1.4854437158433e-12
  39    9.8084647133952e-05
  40    0.00015718746038405
  41    -0.0055908612994042
  42    -0.018960349549379
  43    4.0051814154853e-05
  44    1.2826155885895e-05
  45    -7.7553626968252e-11
  46    0.0018321422041001
  47    0.0023681071586945
  48    5.2859086769284e-10
  49    0.0019365878831067
  50    0.0024507374470954
  51    -3.984038533875e-10
  52    9.4222998810836e-05
  53    8.2897973177075e-05
  54    5.6344120202055e-05
  55    3.3191421197234e-05
  56    -1.1588411141223e-11
  57    -5.8771189917058e-11
  58    9.4888847438896e-05
  59    0.0001478685027266
  60    -0.0055678162682701
  61    -0.017261305527124
  62    2.7534525318549e-05
  63    -1.4204356771902e-05
  64    -8.3162157185064e-11
  65    0.0017290499597635
  66    -0.0023399616019542
  67    4.2581503144306e-10
  68    0.0055202581693385
  69    0.00042462667613299
  70    1.0060946743494e-09
  71    0.00010934722835408
  72    7.3714418679863e-05
  73    5.3467044138323e-05
  74    -3.6407004539346e-05
  75    -2.4906833724201e-11
  76    5.6815714723179e-11
  77    0.0067469373988117
  78    -0.00012093998293444
  79    0.0089769295514692
  80     0.020857628984885
  81    4.9004846083883e-05
  82    0.0002618802776603
  83    -5.8324462452822e-11
  84    0.0018693612616821
  85    -0.0047037047034641
  86    5.1431804831829e-10
  87    0.0014889497019844
  88    -0.0022891949810533
  89    1.8193714117051e-09
  90    -0.00026555357130287
  91    -0.00034298539531313
  92    -0.00014627213816851
  93    -0.00018339790150726
  94    7.9748746142295e-11
  95    3.8773241227039e-12
  96    0.0060115030611647
  97    -0.00013727725128173
  98    0.0083497922076413
  99    0.0055763543543438
 100    7.5682648411581e-05
 101    -0.00025011112303527
 102    -2.7105839262547e-11
 103    0.0016584771483428
 104    0.0046645002439483
 105    3.4194397167777e-10
 106    0.0078257492597089
 107    -0.0021407928452547
 108    3.8060952009311e-11
 109    -0.00029786535495638
 110    -0.00029633577645969
 111    -0.00014604439372101
 112    0.00018263855306179
 113    8.3297328685173e-11
 114    5.5365321517904e-12
 115      0.99435848593325
 116     0.040056845672967
 117    -0.021380510019788
 118    -0.0081864628611497
 119    -0.0011386855682089
 120    -4.7907992245066e-06
 121    6.694192185342e-11
 122    -0.0059485012973532
 123    -0.00053066179321306
 124    8.7133958575983e-10
 125    -0.0044201275731785
 126    -0.0073707444614895
 127    -7.6581245494873e-10
 128    -0.0045735789389927
 129    -0.0049788086085818
 130    -0.0056522115068934
 131    6.820203989235e-05
 132    -1.7899321088418e-10
 133    3.6528918164688e-11
 134    7.7673302020912e-05
 135    0.00099328005542357
 136    -0.0041864616423766
 137    0.0058579673832348
 138    9.2969661974484e-05
 139    -1.1067912291469e-07
 140    -5.4322322011526e-11
 141    -0.0020787893006835
 142    -3.3692339399167e-05
 143    5.8739802282567e-10
 144    0.0032846356526394
 145    0.0013272341855667
 146    7.8851864620355e-11
 147    -0.00049584293540047
 148    0.00063566283567849
 149    0.00070983489759244
 150    -4.7408595140752e-05
 151    2.3331034673195e-10
 152    4.3340917064798e-11
 153    -1.1298689034421e-05
 154    -0.00021837176861624
 155    -2.3425735251769e-05
 156    -8.2326665947851e-07
 157    -2.3425669448517e-05
 158    -8.2276672789435e-07
 159    -0.00010667762202253
 160    -0.00034860090994969
 161    -9.9425939479242e-05
 162    -0.00034868281911464
 163    8.9375279095085e-05
 164    0.0010835575623217
 165    7.4155200665616e-05
 166    0.0012340207649664
 167    0.00013937361469915
 168    -0.0012702506394022
 Sym= A
 Ene=    -10.58231134
 Spin= Alpha
 Occup=    2.00000
   1     0.011309583022878
   2    0.00046223156619307
   3     0.002543880193532
   4    0.0065376246985183
   5    0.00012429378489524
   6    -2.6674967513442e-06
   7    9.3658055751302e-11
   8    -0.0011815781261729
   9    -8.9436401905767e-05
  10    -4.8582567679884e-10
  11    0.00038325400422025
  12    0.0002043517732174
  13    -1.8366369747424e-09
  14    -0.00061875365765493
  15    -0.00014634718445659
  16    -8.685276124157e-05
  17    -1.1631685011099e-05
  18    -3.4983957994526e-10
  19    -8.0473380134097e-12
  20      0.94263692095394
  21     0.038114217070966
  22    -0.018198040433279
  23     0.078660944142238
  24    -4.8310687114657e-05
  25    -5.1210230732116e-05
  26    1.5596744322468e-10
  27    0.0011874629391002
  28    0.00046607669817901
  29    -4.3756442786229e-10
  30    -0.027514804570693
  31    -0.00081273714778466
  32    -5.3142522006292e-09
  33    -0.0050418429335742
  34    -0.0049555821986455
  35    -0.0053812360736128
  36    4.239327035868e-06
  37    1.6127627436761e-10
  38    1.6884671265384e-11
  39       0.2920172140388
  40      0.01162043857693
  41    0.00021959156153731
  42      -0.0690885794013
  43    -0.00018226881226048
  44    0.00018267317616679
  45    -2.3017866760751e-11
  46    0.00059150298237845
  47    -0.0022508400596702
  48    3.3388654954634e-10
  49    0.0075368864382429
  50    0.0096270647510298
  51    5.0122987913379e-10
  52    -0.0017960088656748
  53    -0.001931735615357
  54    -0.0017651424995258
  55    0.00016641456941489
  56    -3.0934609958091e-11
  57    -1.5470503562689e-11
  58      0.11134845365354
  59    0.0042853939158036
  60    0.0034694290638056
  61    -0.079838887470398
  62    -0.00012799018999642
  63    -0.00021324110742277
  64    -1.9656649034349e-11
  65    0.00046192283193571
  66    0.0026635518874583
  67    4.598136768834e-10
  68      0.01048754895075
  69    -0.0099106460865185
  70    1.0486540949543e-09
  71    -0.00080218821100337
  72    -0.00093566166912903
  73    -0.00070699853383238
  74    -0.0001879273482134
  75    -4.9290546350227e-11
  76    4.2941367503659e-12
  77     0.044140123198342
  78     0.001763556225547
  79    -0.0018292521092229
  80     0.053537374628146
  81    -8.077504714687e-05
  82    -2.1284207734176e-05
  83    -2.4319223462536e-11
  84    -4.1695984123531e-05
  85    0.0018352553132729
  86    -1.0482247631155e-10
  87    0.0065821485135604
  88    -0.0056950597323287
  89    1.6195450493335e-09
  90    -0.0002776859663082
  91    -0.00025668586721143
  92    -0.00026326684567695
  93    -4.7932370570752e-05
  94    -1.762483412057e-11
  95    -1.722652331536e-11
  96    0.0053385185224557
  97    0.00020632895249268
  98    -0.0019445524070571
  99     0.052520973485121
 100    -3.6919496232846e-05
 101    1.5219401054588e-05
 102    -2.1632738221751e-11
 103    -0.00030559892456418
 104    -0.0019833364262677
 105    -1.4791685580306e-10
 106     0.010467953640091
 107    0.0043087610439648
 108    6.7113372594521e-10
 109    2.4342947519581e-05
 110    -1.6023102081542e-05
 111    -3.0313968932219e-05
 112    4.0021226978931e-05
 113    -1.2130683810643e-11
 114    9.8027697254625e-12
 115    -0.00029748726497001
 116    -0.00020151142364893
 117    0.0023809717113407
 118    -0.041686327804488
 119    -7.7329247829429e-05
 120    -1.4723996805089e-05
 121    7.2624684109806e-13
 122    0.0026712236227876
 123    9.8766206056774e-05
 124    -5.0839476512935e-10
 125    -0.011390088924799
 126    -0.0033320991658399
 127    -2.9999082628505e-11
 128    -6.0832114185445e-06
 129    4.8961501165251e-05
 130    -6.8312961867836e-05
 131    -2.3099618995026e-06
 132    -1.4188826032831e-12
 133    -3.9168766220624e-13
 134    -2.1679219217935e-05
 135    -0.00010899664947388
 136    0.00078973038288712
 137     0.002504398934671
 138    -3.1130135306906e-06
 139    -8.2749577092044e-06
 140    6.0626492804673e-12
 141    0.00027122668907988
 142    8.4050121756169e-05
 143    -3.0254288791043e-11
 144    0.0016155067167209
 145    0.00036509402309989
 146    2.7289585386198e-10
 147    -1.7662606152398e-05
 148    -4.8533875963956e-05
 149    -8.8195961167087e-05
 150    1.8563699016919e-06
 151    -1.6776969960492e-11
 152    4.1038192068122e-11
 153    -0.00012612004763108
 154    0.00018044874963864
 155    -0.00016359827418403
 156    0.00017499288772292
 157    -0.00016359832414242
 158    0.00017499276449282
 159    -0.00013081256132989
 160    0.0012909609476679
 161    -0.00011059611282136
 162    0.0010694481642774
 163    -9.92496083009e-05
 164    -0.00050414220630266
 165    -9.1156909793588e-05
 166    -0.00063491236304117
 167    -2.5558423129981e-05
 168    -0.0002553334259784
 Sym= A
 Ene=    -10.58089898
 Spin= Alpha
 Occup=    2.00000
   1    -0.0040912681396395
   2    -0.00039428532865727
   3    0.0010951622377167
   4     0.016452566658143
   5    -3.8352481357148e-05
   6    -2.5663561875647e-05
   7    1.9565280838914e-11
   8    -0.00058484837091381
   9    -0.00012998237362736
  10    -9.1432451446263e-10
  11    -0.0039361459621195
  12    0.0013385325461754
  13    -2.8967265865146e-09
  14    0.00024676361408707
  15    4.2546546306614e-05
  16    -4.7259741614893e-05
  17    7.7047464537443e-06
  18    2.1214588453339e-10
  19    4.7664784010763e-11
  20     -0.28680006994117
  21    -0.011839146100382
  22     0.011014097534743
  23    -0.049477713107164
  24    0.00022389538478296
  25    -0.00022553205160456
  26    3.9538935092186e-11
  27    -0.0043385338782921
  28    0.0019043670835458
  29    -1.0696121483917e-09
  30    -0.0016158836776269
  31    -0.013892767600137
  32    -1.5523870043119e-09
  33    0.0013594002021893
  34     0.001130718859519
  35    0.0015906578708231
  36    0.00011218699439717
  37    -1.187408612612e-10
  38    4.7128264891385e-11
  39      0.90281630466944
  40     0.036747203706938
  41    -0.019422871051408
  42     0.063592261425648
  43    -0.00013155760819224
  44    -0.00024814440886212
  45    -5.3435067085965e-11
  46    0.0010737994755916
  47    0.0038646642092219
  48    -6.6505997473709e-13
  49    -0.00015352883323105
  50    -0.012576632772125
  51    5.7657198175033e-10
  52    -0.0048312757337002
  53    -0.0048653609987686
  54    -0.0052897771108101
  55    -0.00017265366597957
  56    1.0354909427274e-10
  57    -3.4068009193192e-11
  58    -0.059485893837772
  59    -0.0023802464835911
  60    -0.0029770864105774
  61    -0.0070368955862786
  62    1.2462242900374e-05
  63    6.0892858965361e-05
  64    1.2151701229084e-11
  65    0.0012233229983886
  66    -0.0019804519120342
  67    1.3640625474253e-12
  68    -0.0023546641529144
  69    -0.0017261477684403
  70    -2.6084892536507e-10
  71    0.00043145713776522
  72    0.00055221532622466
  73    0.00036516019403319
  74    5.6936932614005e-05
  75    4.6863228952984e-11
  76    1.7993749692192e-11
  77      0.29597316525517
  78     0.011761079714389
  79     0.001740265508622
  80    -0.014361035992994
  81    -0.00022530675855821
  82    -3.1768804777129e-05
  83    3.6142456633882e-11
  84    0.0022984304949142
  85    -0.0017691121908712
  86    3.2846381778853e-10
  87    -0.0047414808473611
  88     0.001340492094464
  89    3.4617929800516e-10
  90    -0.0020767857202757
  91    -0.0017553302556855
  92    -0.0018436240592601
  93    -4.4592861575506e-06
  94    -3.3191975532613e-11
  95    -4.1709155796481e-11
  96    -0.0045945182569789
  97    -0.00036922632636132
  98    0.0027214852683561
  99    -0.0038895441781474
 100    1.6777109589969e-05
 101    -2.0213125560697e-05
 102    1.2783607546226e-11
 103    0.00075799363199417
 104    0.0012930567525565
 105    1.7187282318888e-10
 106    7.9712753545248e-05
 107    8.4718347945918e-05
 108    2.0654631771141e-10
 109    4.9885847185018e-05
 110    4.317420623147e-05
 111    -4.6977792263006e-05
 112    -1.2259461585882e-05
 113    1.6401407584265e-11
 114    1.3610920505137e-11
 115    -0.0021316416589294
 116    2.7761317937219e-06
 117    -0.0027739644014891
 118    -0.0053201174230186
 119    -5.3594318460558e-05
 120    -9.1990258719462e-05
 121    1.5742075610716e-11
 122    -0.00076439504644732
 123    0.00023051810624102
 124    4.637062444923e-11
 125    -0.0013214636153351
 126    -0.0028463600729468
 127    -4.1508654496429e-10
 128    8.4151332856154e-06
 129    -4.4667216343716e-05
 130    6.1470687068916e-05
 131    -1.4569293339089e-05
 132    6.4120688975007e-11
 133    3.0041734843633e-12
 134    -5.7089928474604e-06
 135    -4.4675742730521e-05
 136    1.2612026244187e-05
 137    0.0017432068844053
 138    -2.1492524016874e-05
 139    -8.8481617224846e-06
 140    -5.5226516911493e-12
 141    0.00021269098538237
 142    5.6709547452033e-05
 143    6.1357494030062e-11
 144    0.00067941095205129
 145    0.00054998378210435
 146    -2.792878144708e-11
 147    3.7151475963806e-05
 148    -5.1401457010661e-06
 149    -6.7570362620164e-05
 150    2.7962569268983e-05
 151    -3.7262605135287e-11
 152    3.0484745065617e-11
 153    -4.1332281243742e-05
 154    0.0001369447309468
 155    2.1779286249737e-05
 156    3.9820887405494e-05
 157    2.1779331565813e-05
 158    3.9821612632416e-05
 159    -0.00019240943785454
 160    0.00076493100128664
 161    -8.1508781167121e-05
 162    -0.0004898893439879
 163    -4.8882258636898e-05
 164    0.0012199103352606
 165    1.3627024059045e-05
 166    0.0004475076484301
 167    -2.220165126687e-05
 168    -0.00026731936875761
 Sym= A
 Ene=    -10.57951329
 Spin= Alpha
 Occup=    2.00000
   1    0.00067713902702414
   2    -1.4408572690108e-05
   3    -0.00068031754956722
   4    0.0038307013686982
   5    7.886174817494e-05
   6    -5.3932185002672e-06
   7    6.9546806610698e-11
   8    0.00012486681456748
   9    0.00026950610381147
  10    3.5917442755234e-10
  11    -0.0011152514055971
  12    -0.00041564081500387
  13    -7.368228655825e-10
  14    -6.8201925723273e-05
  15    -4.93845438556e-05
  16    -5.0083200192288e-05
  17    -2.9833792235309e-05
  18    -5.7271711271346e-11
  19    -5.6472531683735e-11
  20     0.044784487609104
  21    0.0020648600929021
  22    -0.0079585332021186
  23     0.018567721159433
  24    -9.17034962905e-05
  25    5.9129209829463e-05
  26    7.9970181668792e-12
  27    0.0043786707253501
  28    -0.0011304534125272
  29    8.8228649210761e-10
  30    -0.0052068186415039
  31    3.4353097305059e-05
  32    -7.1810995530568e-10
  33    -0.00012383954707586
  34    -7.2844898869129e-05
  35    -0.00017707984338759
  36    -5.4819688968745e-05
  37    2.5621117826229e-12
  38    -3.7223992350319e-11
  39     -0.29569279425594
  40    -0.012458426176376
  41     0.015718190066314